 Gaussian 09, Revision B.01,
 Gaussian 09:  EM64L-G09RevB.01 12-Aug-2010

 ----------------------------------------------------------------------
 # b3lyp/6-311+G(2d,p) nmr guess=read geom=check integral(ultrafinegrid
 ) scrf=(iefpcm,read,solvent=methanol)
 ----------------------------------------------------------------------

 solvation
 ----------------------------------------------------------------------
 Redundant internal coordinates taken from checkpoint file:
 1b-conf-17.chk
 Charge =  0 Multiplicity = 1

                         Standard orientation:
 ---------------------------------------------------------------------
 Center     Atomic      Atomic             Coordinates (Angstroms)
 Number     Number       Type             X           Y           Z
 ---------------------------------------------------------------------
      1          8           0       -2.491191   -2.807429   -0.517103
      2          6           0       -2.752581   -1.498903   -0.311977
      3          6           0       -1.775193   -0.497178   -0.162271
      4          6           0       -0.327698   -0.764209   -0.205994
      5          7           0        0.597719    0.075228    0.038357
      6          6           0        1.866373   -0.619742   -0.220449
      7          6           0        2.935641   -0.256059    0.811800
      8          8           0        4.127439   -0.979714    0.558897
      9          6           0        3.177302    1.251553    0.896054
     10          6           0        3.735532    1.849711   -0.369995
     11          8           0        3.646251    3.179736   -0.386129
     12          8           0        4.239882    1.213860   -1.276407
     13          6           0        1.479850   -2.117578   -0.259962
     14          6           0        1.648253   -2.894765    1.031922
     15          8           0        0.051625   -2.027907   -0.553677
     16          6           0       -2.177984    0.831054    0.050103
     17          6           0       -3.519621    1.149528    0.113540
     18         17           0       -4.004054    2.809167    0.376808
     19          6           0       -4.497910    0.162622   -0.033010
     20          6           0       -4.108903   -1.148552   -0.244307
     21          1           0       -1.532483   -2.967949   -0.563767
     22          1           0        2.226460   -0.308708   -1.211685
     23          1           0        2.592052   -0.579156    1.800453
     24          1           0        4.498641   -0.662245   -0.281874
     25          1           0        3.905603    1.456443    1.690422
     26          1           0        2.253886    1.774269    1.158233
     27          1           0        4.057067    3.520027   -1.209780
     28          1           0        1.939327   -2.639166   -1.101074
     29          1           0        1.119157   -2.402189    1.854025
     30          1           0        1.241151   -3.901351    0.911446
     31          1           0        2.708412   -2.969590    1.285311
     32          1           0       -1.415735    1.596162    0.161054
     33          1           0       -5.551178    0.423311    0.017038
     34          1           0       -4.847900   -1.935560   -0.361395
 ---------------------------------------------------------------------

 SCF Done:  E(RB3LYP) =  -1395.25082308     A.U. after   13 cycles

  1  O    Isotropic =   200.6589   Anisotropy =    92.2761

  2  C    Isotropic =    18.7775   Anisotropy =   143.5598

  3  C    Isotropic =    64.3690   Anisotropy =   136.2078

  4  C    Isotropic =    12.3507   Anisotropy =    70.4724

  5  N    Isotropic =    16.8832   Anisotropy =   240.6075

  6  C    Isotropic =   109.5251   Anisotropy =    51.1720

  7  C    Isotropic =   110.1347   Anisotropy =    55.7346

  8  O    Isotropic =   279.9287   Anisotropy =    22.8701

  9  C    Isotropic =   144.2467   Anisotropy =    31.6314

 10  C    Isotropic =    -2.0928   Anisotropy =   112.8422

 11  O    Isotropic =   112.5380   Anisotropy =   189.7442

 12  O    Isotropic =   -60.5323   Anisotropy =   484.3271

 13  C    Isotropic =    96.6004   Anisotropy =    81.0390

 14  C    Isotropic =   167.1788   Anisotropy =    22.0606

 15  O    Isotropic =   117.8227   Anisotropy =   124.4921

 16  C    Isotropic =    47.0229   Anisotropy =   154.2676

 17  C    Isotropic =    46.8957   Anisotropy =   100.4602

 18  Cl   Isotropic =   709.1079   Anisotropy =   492.7414

 19  C    Isotropic =    42.5773   Anisotropy =   162.2035

 20  C    Isotropic =    58.2314   Anisotropy =   146.9799

 21  H    Isotropic =    23.4294   Anisotropy =    20.8433

 22  H    Isotropic =    27.1718   Anisotropy =     6.6082

 23  H    Isotropic =    27.8173   Anisotropy =     3.4102

 24  H    Isotropic =    28.4060   Anisotropy =    16.9724

 25  H    Isotropic =    28.7631   Anisotropy =     6.7454

 26  H    Isotropic =    28.3962   Anisotropy =     5.8274

 27  H    Isotropic =    24.7250   Anisotropy =    11.8725

 28  H    Isotropic =    26.4490   Anisotropy =     4.1221

 29  H    Isotropic =    30.4691   Anisotropy =     4.9753

 30  H    Isotropic =    30.5320   Anisotropy =     9.3063

 31  H    Isotropic =    30.3065   Anisotropy =     8.3636

 32  H    Isotropic =    23.4187   Anisotropy =    12.2724

 33  H    Isotropic =    24.0829   Anisotropy =     7.1575

 34  H    Isotropic =    24.5627   Anisotropy =     5.6342

 The electronic state is 1-A.
 Alpha  occ. eigenvalues -- -101.55968 -19.18430 -19.17640 -19.16216 -19.13138
 Alpha  occ. eigenvalues --  -19.13055 -14.30585 -10.32263 -10.28051 -10.25846
 Alpha  occ. eigenvalues --  -10.23818 -10.23769 -10.23277 -10.20835 -10.20666
 Alpha  occ. eigenvalues --  -10.19662 -10.19653 -10.18669 -10.18636 -10.16137
 Alpha  occ. eigenvalues --   -9.47419  -7.23855  -7.22915  -7.22888  -1.12721
 Alpha  occ. eigenvalues --   -1.10993  -1.07616  -1.04267  -1.03075  -0.92357
 Alpha  occ. eigenvalues --   -0.90117  -0.85026  -0.81594  -0.78737  -0.77057
 Alpha  occ. eigenvalues --   -0.74191  -0.71202  -0.68355  -0.64980  -0.62546
 Alpha  occ. eigenvalues --   -0.61689  -0.60006  -0.58980  -0.55369  -0.52990
 Alpha  occ. eigenvalues --   -0.52053  -0.51115  -0.50734  -0.50083  -0.48560
 Alpha  occ. eigenvalues --   -0.47804  -0.47152  -0.46226  -0.45563  -0.44731
 Alpha  occ. eigenvalues --   -0.43867  -0.43513  -0.42236  -0.41236  -0.40651
 Alpha  occ. eigenvalues --   -0.39940  -0.39349  -0.39046  -0.38887  -0.38519
 Alpha  occ. eigenvalues --   -0.37729  -0.36557  -0.35017  -0.34693  -0.34218
 Alpha  occ. eigenvalues --   -0.32622  -0.32383  -0.30390  -0.29761  -0.29267
 Alpha  occ. eigenvalues --   -0.28551  -0.25609  -0.23512
 Alpha virt. eigenvalues --   -0.06085  -0.02112  -0.01637  -0.00020   0.00849
 Alpha virt. eigenvalues --    0.01007   0.01384   0.01981   0.02758   0.03061
 Alpha virt. eigenvalues --    0.03283   0.03969   0.04540   0.04997   0.05302

 Mulliken atomic charges:
              1
     1  O   -0.572501
     2  C   -0.332801
     3  C    0.298981
     4  C    0.641028
     5  N   -0.352074
     6  C    0.412767
     7  C    0.199465
     8  O   -0.465101
     9  C   -0.505958
    10  C    0.648448
    11  O   -0.411870
    12  O   -0.564758
    13  C   -0.220691
    14  C   -0.418304
    15  O   -0.555255
    16  C   -0.769321
    17  C    1.047932
    18  Cl  -0.077316
    19  C   -0.652084
    20  C   -0.062396
    21  H    0.392206
    22  H    0.122780
    23  H    0.124738
    24  H    0.287299
    25  H    0.179617
    26  H    0.184622
    27  H    0.348851
    28  H    0.138528
    29  H    0.158378
    30  H    0.150896
    31  H    0.166979
    32  H    0.171147
    33  H    0.150917
    34  H    0.134851
 Sum of Mulliken atomic charges =   0.00000

 Dipole moment (field-independent basis, Debye):
    X=              1.5582    Y=             -0.5800    Z=              0.0260  Tot=              1.6628
 Quadrupole moment (field-independent basis, Debye-Ang):
   XX=           -126.2107   YY=           -119.9579   ZZ=           -124.3213
   XY=             11.3713   XZ=             -0.6083   YZ=             -2.3196

 Normal termination of Gaussian 09 at Tue Mar 26 02:59:34 2019.
