 Gaussian 09, Revision B.01,
 Gaussian 09:  EM64L-G09RevB.01 12-Aug-2010

 ----------------------------------------------------------------------
 # b3lyp/6-311+G(2d,p) nmr guess=read geom=check integral(ultrafinegrid
 ) scrf=(iefpcm,read,solvent=methanol)
 ----------------------------------------------------------------------

 olvation
 ----------------------------------------------------------------------
 Redundant internal coordinates taken from checkpoint file:
 1b-conf-7.chk
 Charge =  0 Multiplicity = 1

                         Standard orientation:
 ---------------------------------------------------------------------
 Center     Atomic      Atomic             Coordinates (Angstroms)
 Number     Number       Type             X           Y           Z
 ---------------------------------------------------------------------
      1          8           0        0.672202   -2.356463    0.577679
      2          6           0        1.762179   -1.608084    0.344789
      3          6           0        1.688908   -0.245254   -0.011455
      4          6           0        0.379900    0.392583   -0.145485
      5          7           0       -0.739255   -0.197789    0.067680
      6          6           0       -1.795538    0.764055   -0.270636
      7          6           0       -2.958906    0.715710    0.722497
      8          8           0       -3.931268    1.686617    0.379678
      9          6           0       -3.558842   -0.685266    0.853448
     10          6           0       -4.186418   -1.195130   -0.418724
     11          8           0       -4.384138   -2.512480   -0.397419
     12          8           0       -4.508250   -0.496009   -1.360935
     13          6           0       -1.042409    2.116753   -0.337978
     14          6           0       -1.089010    2.979354    0.909228
     15          8           0        0.339203    1.680805   -0.530226
     16          6           0        2.861247    0.487374   -0.240029
     17          6           0        4.088784   -0.136546   -0.114771
     18         17           0        5.554609    0.775362   -0.397848
     19          6           0        4.176875   -1.486015    0.236445
     20          6           0        3.019465   -2.213976    0.463934
     21          1           0       -0.134752   -1.792505    0.449737
     22          1           0       -2.183597    0.508183   -1.266718
     23          1           0       -2.587135    0.997328    1.713363
     24          1           0       -4.341727    1.417813   -0.459657
     25          1           0       -4.351855   -0.665508    1.611194
     26          1           0       -2.805485   -1.401096    1.192718
     27          1           0       -4.830544   -2.785316   -1.227518
     28          1           0       -1.315299    2.689865   -1.225575
     29          1           0       -0.741210    2.418872    1.782926
     30          1           0       -0.441047    3.848512    0.776236
     31          1           0       -2.110800    3.321822    1.089366
     32          1           0        2.793878    1.536269   -0.512577
     33          1           0        5.149574   -1.960358    0.330430
     34          1           0        3.067017   -3.263612    0.737938
 ---------------------------------------------------------------------

 SCF Done:  E(RB3LYP) =  -1395.25806540     A.U. after   12 cycles

  1  O    Isotropic =   185.6229   Anisotropy =   134.9752

  2  C    Isotropic =    16.5461   Anisotropy =   150.9637

  3  C    Isotropic =    65.5731   Anisotropy =   142.1914

  4  C    Isotropic =    10.4118   Anisotropy =    85.1792

  5  N    Isotropic =    25.0766   Anisotropy =   220.0182

  6  C    Isotropic =   108.9226   Anisotropy =    52.1999

  7  C    Isotropic =   110.4447   Anisotropy =    55.5911

  8  O    Isotropic =   280.0076   Anisotropy =    22.3851

  9  C    Isotropic =   144.2173   Anisotropy =    31.1271

 10  C    Isotropic =    -2.0642   Anisotropy =   113.2142

 11  O    Isotropic =   112.5028   Anisotropy =   188.5313

 12  O    Isotropic =   -59.8599   Anisotropy =   483.5418

 13  C    Isotropic =    98.6595   Anisotropy =    77.7122

 14  C    Isotropic =   167.2783   Anisotropy =    22.0547

 15  O    Isotropic =   119.7134   Anisotropy =   116.5795

 16  C    Isotropic =    49.0987   Anisotropy =   156.2640

 17  C    Isotropic =    48.1367   Anisotropy =    99.4542

 18  Cl   Isotropic =   709.5621   Anisotropy =   496.4570

 19  C    Isotropic =    42.9027   Anisotropy =   162.4898

 20  C    Isotropic =    59.7291   Anisotropy =   146.8465

 21  H    Isotropic =    20.0151   Anisotropy =    25.9898

 22  H    Isotropic =    26.9960   Anisotropy =     6.5737

 23  H    Isotropic =    27.7627   Anisotropy =     3.3837

 24  H    Isotropic =    28.2839   Anisotropy =    17.1668

 25  H    Isotropic =    28.7566   Anisotropy =     6.8857

 26  H    Isotropic =    28.4898   Anisotropy =     5.6777

 27  H    Isotropic =    24.7294   Anisotropy =    11.9767

 28  H    Isotropic =    26.5647   Anisotropy =     4.3488

 29  H    Isotropic =    30.5364   Anisotropy =     5.0533

 30  H    Isotropic =    30.5251   Anisotropy =     9.4172

 31  H    Isotropic =    30.2846   Anisotropy =     8.3290

 32  H    Isotropic =    23.7190   Anisotropy =    12.4614

 33  H    Isotropic =    24.0642   Anisotropy =     7.2287

 34  H    Isotropic =    24.5463   Anisotropy =     5.7810

 The electronic state is 1-A.
 Alpha  occ. eigenvalues -- -101.55943 -19.18509 -19.17279 -19.15462 -19.13197
 Alpha  occ. eigenvalues --  -19.13094 -14.31385 -10.32328 -10.28344 -10.25554
 Alpha  occ. eigenvalues --  -10.23763 -10.23750 -10.23418 -10.21134 -10.20412
 Alpha  occ. eigenvalues --  -10.19787 -10.19652 -10.18781 -10.18549 -10.16120
 Alpha  occ. eigenvalues --   -9.47394  -7.23828  -7.22889  -7.22864  -1.12812
 Alpha  occ. eigenvalues --   -1.11034  -1.07311  -1.04370  -1.03147  -0.92555
 Alpha  occ. eigenvalues --   -0.90150  -0.84998  -0.81708  -0.78877  -0.76960
 Alpha  occ. eigenvalues --   -0.74002  -0.71438  -0.68110  -0.64735  -0.63439
 Alpha  occ. eigenvalues --   -0.61239  -0.60055  -0.58480  -0.54794  -0.53914
 Alpha  occ. eigenvalues --   -0.52104  -0.50964  -0.50460  -0.50149  -0.48679
 Alpha  occ. eigenvalues --   -0.47880  -0.47142  -0.46333  -0.45582  -0.44830
 Alpha  occ. eigenvalues --   -0.43942  -0.43451  -0.41871  -0.41350  -0.40890
 Alpha  occ. eigenvalues --   -0.39944  -0.39362  -0.38940  -0.38808  -0.38518
 Alpha  occ. eigenvalues --   -0.37805  -0.36880  -0.35226  -0.34806  -0.34284
 Alpha  occ. eigenvalues --   -0.32394  -0.32379  -0.30525  -0.29904  -0.29531
 Alpha  occ. eigenvalues --   -0.28329  -0.26010  -0.23375
 Alpha virt. eigenvalues --   -0.06010  -0.02047  -0.01708  -0.00026   0.00847
 Alpha virt. eigenvalues --    0.00974   0.01670   0.01909   0.02647   0.03099
 Alpha virt. eigenvalues --    0.03331   0.03935   0.04560   0.05076   0.05475

 Mulliken atomic charges:
              1
     1  O   -0.638747
     2  C   -0.017869
     3  C    0.149047
     4  C    0.617017
     5  N   -0.451096
     6  C    0.466682
     7  C    0.239708
     8  O   -0.469501
     9  C   -0.543330
    10  C    0.656319
    11  O   -0.409753
    12  O   -0.560189
    13  C   -0.243490
    14  C   -0.415794
    15  O   -0.477557
    16  C   -0.861394
    17  C    1.035443
    18  Cl  -0.084207
    19  C   -0.652798
    20  C   -0.117463
    21  H    0.459979
    22  H    0.129798
    23  H    0.124541
    24  H    0.288889
    25  H    0.182278
    26  H    0.183863
    27  H    0.348958
    28  H    0.134973
    29  H    0.157978
    30  H    0.151164
    31  H    0.164292
    32  H    0.167366
    33  H    0.150332
    34  H    0.134560
 Sum of Mulliken atomic charges =   0.00000

 Dipole moment (field-independent basis, Debye):
    X=             -2.7394    Y=             -0.9668    Z=              0.3731  Tot=              2.9289
 Quadrupole moment (field-independent basis, Debye-Ang):
   XX=           -129.5080   YY=           -120.6154   ZZ=           -124.0579
   XY=              4.9787   XZ=              2.3243   YZ=              1.7701

 Normal termination of Gaussian 09 at Tue Mar 26 03:06:25 2019.
