 Gaussian 09, Revision B.01,
 Gaussian 09:  EM64L-G09RevB.01 12-Aug-2010

 ----------------------------------------------------------------------
 # b3lyp/6-311+G(2d,p) nmr guess=read geom=check integral(ultrafinegrid
 ) scrf=(iefpcm,read,solvent=methanol)
 ----------------------------------------------------------------------

 solvation
 ----------------------------------------------------------------------
 Redundant internal coordinates taken from checkpoint file:
 1b-conf-10.chk
 Charge =  0 Multiplicity = 1

                         Standard orientation:
 ---------------------------------------------------------------------
 Center     Atomic      Atomic             Coordinates (Angstroms)
 Number     Number       Type             X           Y           Z
 ---------------------------------------------------------------------
      1          8           0        1.969880    2.713487   -0.159788
      2          6           0        2.638893    1.538841   -0.142254
      3          6           0        1.898026    0.345461   -0.156145
      4          6           0        0.423802    0.338355   -0.227435
      5          7           0       -0.337521   -0.442319    0.435307
      6          6           0       -1.698486   -0.188889   -0.071195
      7          6           0       -2.728522   -0.387157    1.039999
      8          8           0       -2.496107    0.455098    2.153761
      9          6           0       -4.160546   -0.130528    0.587119
     10          6           0       -4.682405   -1.170184   -0.372084
     11          8           0       -5.866528   -0.817765   -0.883761
     12          8           0       -4.129153   -2.212931   -0.648835
     13          6           0       -1.573883    1.187794   -0.764359
     14          6           0       -1.834281    2.440271    0.058253
     15          8           0       -0.156945    1.190063   -1.104679
     16          6           0        2.560948   -0.882519   -0.076441
     17          6           0        3.945243   -0.918761   -0.005864
     18         17           0        4.764300   -2.461264    0.082007
     19          6           0        4.690560    0.257277   -0.008222
     20          6           0        4.034419    1.480267   -0.072183
     21          1           0        2.593218    3.461067   -0.107037
     22          1           0       -1.910218   -0.951237   -0.835125
     23          1           0       -2.648799   -1.440318    1.345334
     24          1           0       -1.591978    0.289648    2.471911
     25          1           0       -4.282905    0.856930    0.131014
     26          1           0       -4.815824   -0.144639    1.466455
     27          1           0       -6.182544   -1.530791   -1.478232
     28          1           0       -2.124339    1.214884   -1.708151
     29          1           0       -1.214086    2.446646    0.957022
     30          1           0       -1.585942    3.314573   -0.548708
     31          1           0       -2.878602    2.509904    0.368296
     32          1           0        1.978849   -1.799387   -0.078700
     33          1           0        5.774763    0.219945    0.044469
     34          1           0        4.606165    2.405515   -0.058541
 ---------------------------------------------------------------------

 SCF Done:  E(RB3LYP) =  -1395.24121653     A.U. after   13 cycles

  1  O    Isotropic =   203.8533   Anisotropy =    54.0230

  2  C    Isotropic =    20.3960   Anisotropy =   143.3123

  3  C    Isotropic =    60.0427   Anisotropy =   137.3767

  4  C    Isotropic =     7.8831   Anisotropy =    86.6737

  5  N    Isotropic =     8.2515   Anisotropy =   235.1973

  6  C    Isotropic =   108.7624   Anisotropy =    45.3493

  7  C    Isotropic =   109.9146   Anisotropy =    47.1820

  8  O    Isotropic =   284.9572   Anisotropy =    64.9583

  9  C    Isotropic =   144.5734   Anisotropy =    44.3769

 10  C    Isotropic =     0.6344   Anisotropy =   109.1030

 11  O    Isotropic =   116.6855   Anisotropy =   196.0899

 12  O    Isotropic =   -62.6492   Anisotropy =   506.8321

 13  C    Isotropic =    97.6429   Anisotropy =    78.2332

 14  C    Isotropic =   164.6507   Anisotropy =    16.4397

 15  O    Isotropic =   107.1111   Anisotropy =   130.4294

 16  C    Isotropic =    45.2824   Anisotropy =   150.2057

 17  C    Isotropic =    46.7801   Anisotropy =   102.5428

 18  Cl   Isotropic =   709.6112   Anisotropy =   492.3241

 19  C    Isotropic =    43.8110   Anisotropy =   161.6645

 20  C    Isotropic =    60.5470   Anisotropy =   137.9835

 21  H    Isotropic =    26.1731   Anisotropy =    14.2824

 22  H    Isotropic =    27.2592   Anisotropy =     6.6765

 23  H    Isotropic =    26.8512   Anisotropy =     6.2508

 24  H    Isotropic =    29.7102   Anisotropy =    15.9188

 25  H    Isotropic =    28.8234   Anisotropy =     4.6450

 26  H    Isotropic =    28.7820   Anisotropy =     6.7234

 27  H    Isotropic =    24.8416   Anisotropy =    12.2479

 28  H    Isotropic =    26.7212   Anisotropy =     3.8477

 29  H    Isotropic =    30.1608   Anisotropy =     3.8712

 30  H    Isotropic =    30.6027   Anisotropy =     9.1224

 31  H    Isotropic =    30.5512   Anisotropy =     7.7690

 32  H    Isotropic =    23.7969   Anisotropy =    11.4458

 33  H    Isotropic =    24.1048   Anisotropy =     7.1036

 34  H    Isotropic =    24.7059   Anisotropy =     5.5782

 The electronic state is 1-A.
 Alpha  occ. eigenvalues -- -101.55984 -19.18200 -19.16837 -19.16616 -19.13126
 Alpha  occ. eigenvalues --  -19.12840 -14.30493 -10.32112 -10.27602 -10.25758
 Alpha  occ. eigenvalues --  -10.23831 -10.23420 -10.23214 -10.20591 -10.20397
 Alpha  occ. eigenvalues --  -10.19770 -10.19681 -10.18938 -10.18882 -10.15865
 Alpha  occ. eigenvalues --   -9.47434  -7.23870  -7.22929  -7.22902  -1.12441
 Alpha  occ. eigenvalues --   -1.10376  -1.08049  -1.03760  -1.03425  -0.91788
 Alpha  occ. eigenvalues --   -0.90135  -0.85068  -0.81486  -0.78992  -0.76669
 Alpha  occ. eigenvalues --   -0.74148  -0.71456  -0.67500  -0.64828  -0.62991
 Alpha  occ. eigenvalues --   -0.62109  -0.58492  -0.57179  -0.56212  -0.54227
 Alpha  occ. eigenvalues --   -0.51723  -0.50784  -0.50191  -0.50062  -0.49440
 Alpha  occ. eigenvalues --   -0.47751  -0.47067  -0.46379  -0.45234  -0.44461
 Alpha  occ. eigenvalues --   -0.43619  -0.42868  -0.42082  -0.40996  -0.40661
 Alpha  occ. eigenvalues --   -0.39837  -0.39191  -0.38985  -0.38724  -0.38002
 Alpha  occ. eigenvalues --   -0.36681  -0.36189  -0.35802  -0.34500  -0.34038
 Alpha  occ. eigenvalues --   -0.32598  -0.32380  -0.30278  -0.30076  -0.28185
 Alpha  occ. eigenvalues --   -0.28090  -0.25826  -0.23669
 Alpha virt. eigenvalues --   -0.05315  -0.02262  -0.01281  -0.00165   0.00416
 Alpha virt. eigenvalues --    0.00859   0.01484   0.01794   0.02283   0.02460
 Alpha virt. eigenvalues --    0.02932   0.03866   0.04613   0.04637   0.05288

 Mulliken atomic charges:
              1
     1  O   -0.511535
     2  C   -0.184255
     3  C    0.349306
     4  C    0.723957
     5  N   -0.444698
     6  C    0.170921
     7  C    0.114285
     8  O   -0.513141
     9  C   -0.311894
    10  C    0.507830
    11  O   -0.423045
    12  O   -0.554323
    13  C    0.021063
    14  C   -0.459247
    15  O   -0.392715
    16  C   -0.599085
    17  C    0.937454
    18  Cl  -0.081577
    19  C   -0.720461
    20  C   -0.232879
    21  H    0.341080
    22  H    0.124086
    23  H    0.125875
    24  H    0.313587
    25  H    0.164142
    26  H    0.171924
    27  H    0.346327
    28  H    0.133705
    29  H    0.155864
    30  H    0.146042
    31  H    0.139667
    32  H    0.159862
    33  H    0.151055
    34  H    0.130825
 Sum of Mulliken atomic charges =   0.00000

 Dipole moment (field-independent basis, Debye):
    X=             -0.1426    Y=              5.3765    Z=             -1.3899  Tot=              5.5551
 Quadrupole moment (field-independent basis, Debye-Ang):
   XX=            -95.9448   YY=           -121.2172   ZZ=           -126.6804
   XY=             17.9061   XZ=              9.1180   YZ=              0.2604

 Normal termination of Gaussian 09 at Tue Mar 26 02:52:03 2019.
