 Gaussian 09, Revision B.01,
 Gaussian 09:  EM64L-G09RevB.01 12-Aug-2010

 ----------------------------------------------------------------------
 # b3lyp/6-311+G(2d,p) nmr guess=read geom=check integral(ultrafinegrid
 ) scrf=(iefpcm,read,solvent=methanol)
 ----------------------------------------------------------------------

 solvation
 ----------------------------------------------------------------------
 Redundant internal coordinates taken from checkpoint file:
 1b-conf-13.chk
 Charge =  0 Multiplicity = 1

                         Standard orientation:
 ---------------------------------------------------------------------
 Center     Atomic      Atomic             Coordinates (Angstroms)
 Number     Number       Type             X           Y           Z
 ---------------------------------------------------------------------
      1          8           0       -0.729831    2.792074    0.061845
      2          6           0       -1.607983    1.776882    0.036265
      3          6           0       -1.260466    0.482284   -0.396900
      4          6           0        0.109456    0.213153   -0.821073
      5          7           0        1.031135    1.106044   -0.897934
      6          6           0        2.276105    0.408742   -1.244040
      7          6           0        3.297477    0.488256   -0.080899
      8          8           0        4.086082    1.658854   -0.225421
      9          6           0        2.688045    0.508799    1.335472
     10          6           0        1.969573   -0.743877    1.764719
     11          8           0        2.819578   -1.740760    2.051803
     12          8           0        0.767732   -0.863524    1.857205
     13          6           0        1.763175   -0.974605   -1.718958
     14          6           0        2.546026   -2.216885   -1.368306
     15          8           0        0.428468   -1.050181   -1.148206
     16          6           0       -2.215900   -0.540497   -0.403121
     17          6           0       -3.503466   -0.268894    0.018505
     18         17           0       -4.703557   -1.542418    0.005322
     19          6           0       -3.863109    1.008356    0.455113
     20          6           0       -2.918466    2.022319    0.463786
     21          1           0        0.142790    2.463400   -0.279953
     22          1           0        2.762045    0.915240   -2.083659
     23          1           0        4.002148   -0.345640   -0.169253
     24          1           0        3.503742    2.439088   -0.228110
     25          1           0        1.983214    1.339595    1.413081
     26          1           0        3.519500    0.674029    2.025998
     27          1           0        2.306758   -2.526588    2.336918
     28          1           0        1.617217   -0.926799   -2.804783
     29          1           0        2.679826   -2.329271   -0.291144
     30          1           0        2.026681   -3.098597   -1.750080
     31          1           0        3.532107   -2.172497   -1.839878
     32          1           0       -1.935598   -1.534590   -0.738130
     33          1           0       -4.879652    1.203392    0.784055
     34          1           0       -3.177307    3.022139    0.798818
 ---------------------------------------------------------------------

 SCF Done:  E(RB3LYP) =  -1395.24836633     A.U. after   13 cycles

  1  O    Isotropic =   186.4014   Anisotropy =   134.1616

  2  C    Isotropic =    16.6928   Anisotropy =   151.2492

  3  C    Isotropic =    65.4077   Anisotropy =   144.4477

  4  C    Isotropic =     8.0122   Anisotropy =    89.3927

  5  N    Isotropic =    26.2826   Anisotropy =   247.1813

  6  C    Isotropic =   103.3451   Anisotropy =    24.0007

  7  C    Isotropic =   106.5906   Anisotropy =    48.1254

  8  O    Isotropic =   250.5174   Anisotropy =    49.7514

  9  C    Isotropic =   139.7318   Anisotropy =    40.8587

 10  C    Isotropic =     3.1255   Anisotropy =   109.6645

 11  O    Isotropic =   107.1676   Anisotropy =   183.5821

 12  O    Isotropic =   -82.3063   Anisotropy =   496.2559

 13  C    Isotropic =   100.2962   Anisotropy =    72.4813

 14  C    Isotropic =   167.8515   Anisotropy =    17.0750

 15  O    Isotropic =   122.3479   Anisotropy =   138.0507

 16  C    Isotropic =    48.9049   Anisotropy =   156.5309

 17  C    Isotropic =    48.1520   Anisotropy =    99.1710

 18  Cl   Isotropic =   710.5411   Anisotropy =   496.3867

 19  C    Isotropic =    42.9233   Anisotropy =   162.3885

 20  C    Isotropic =    59.6809   Anisotropy =   146.9244

 21  H    Isotropic =    19.6058   Anisotropy =    25.3864

 22  H    Isotropic =    27.1715   Anisotropy =     4.4324

 23  H    Isotropic =    27.3879   Anisotropy =     4.2715

 24  H    Isotropic =    29.5736   Anisotropy =    13.3995

 25  H    Isotropic =    29.2373   Anisotropy =     2.5888

 26  H    Isotropic =    28.9704   Anisotropy =     6.1762

 27  H    Isotropic =    24.9398   Anisotropy =    11.2859

 28  H    Isotropic =    26.8010   Anisotropy =     6.5434

 29  H    Isotropic =    30.5143   Anisotropy =     7.7559

 30  H    Isotropic =    30.1389   Anisotropy =     9.8784

 31  H    Isotropic =    30.3796   Anisotropy =     9.6683

 32  H    Isotropic =    23.7789   Anisotropy =    12.4621

 33  H    Isotropic =    24.0437   Anisotropy =     7.1756

 34  H    Isotropic =    24.5093   Anisotropy =     5.5730

 The electronic state is 1-A.
 Alpha  occ. eigenvalues -- -101.55897 -19.18191 -19.17368 -19.15352 -19.13721
 Alpha  occ. eigenvalues --  -19.12783 -14.31394 -10.31911 -10.28379 -10.25434
 Alpha  occ. eigenvalues --  -10.24110 -10.24012 -10.23690 -10.21511 -10.20219
 Alpha  occ. eigenvalues --  -10.19684 -10.19591 -10.18591 -10.18476 -10.16555
 Alpha  occ. eigenvalues --   -9.47348  -7.23782  -7.22843  -7.22818  -1.12374
 Alpha  occ. eigenvalues --   -1.11305  -1.07238  -1.04133  -1.03397  -0.92635
 Alpha  occ. eigenvalues --   -0.90111  -0.84988  -0.81822  -0.78651  -0.77065
 Alpha  occ. eigenvalues --   -0.73999  -0.71589  -0.67901  -0.64429  -0.63370
 Alpha  occ. eigenvalues --   -0.61466  -0.60344  -0.58910  -0.54895  -0.53317
 Alpha  occ. eigenvalues --   -0.53086  -0.51183  -0.50553  -0.49912  -0.48281
 Alpha  occ. eigenvalues --   -0.47762  -0.46877  -0.46133  -0.46003  -0.44698
 Alpha  occ. eigenvalues --   -0.43663  -0.43081  -0.42052  -0.41762  -0.40910
 Alpha  occ. eigenvalues --   -0.39761  -0.39517  -0.39380  -0.38789  -0.38322
 Alpha  occ. eigenvalues --   -0.37128  -0.36771  -0.36025  -0.34568  -0.33856
 Alpha  occ. eigenvalues --   -0.32342  -0.32323  -0.31361  -0.30056  -0.28886
 Alpha  occ. eigenvalues --   -0.28215  -0.26207  -0.23344
 Alpha virt. eigenvalues --   -0.05968  -0.02172  -0.01677   0.00016   0.00904
 Alpha virt. eigenvalues --    0.01241   0.01373   0.01658   0.02510   0.03348
 Alpha virt. eigenvalues --    0.03459   0.04197   0.04442   0.04672   0.05162

 Mulliken atomic charges:
              1
     1  O   -0.623316
     2  C   -0.025840
     3  C    0.080075
     4  C    0.579464
     5  N   -0.502849
     6  C    0.312280
     7  C    0.046459
     8  O   -0.472387
     9  C   -0.303224
    10  C    0.381366
    11  O   -0.389465
    12  O   -0.493288
    13  C    0.210300
    14  C   -0.530371
    15  O   -0.407416
    16  C   -0.777648
    17  C    1.010346
    18  Cl  -0.083978
    19  C   -0.647393
    20  C   -0.157359
    21  H    0.460890
    22  H    0.131922
    23  H    0.145682
    24  H    0.302654
    25  H    0.177823
    26  H    0.174224
    27  H    0.349081
    28  H    0.127720
    29  H    0.157210
    30  H    0.153988
    31  H    0.164817
    32  H    0.164454
    33  H    0.149872
    34  H    0.133906
 Sum of Mulliken atomic charges =   0.00000

 Dipole moment (field-independent basis, Debye):
    X=              4.1880    Y=             -1.7489    Z=             -1.3852  Tot=              4.7452
 Quadrupole moment (field-independent basis, Debye-Ang):
   XX=           -129.2619   YY=           -119.5449   ZZ=           -119.0206
   XY=            -13.3675   XZ=             -2.7027   YZ=              1.7114

 Normal termination of Gaussian 09 at Tue Mar 26 02:56:11 2019.
