 Gaussian 09, Revision B.01,
 Gaussian 09:  EM64L-G09RevB.01 12-Aug-2010

 ----------------------------------------------------------------------
 # b3lyp/6-311+G(2d,p) nmr guess=read geom=check integral(ultrafinegrid
 ) scrf=(iefpcm,read,solvent=methanol)
 ----------------------------------------------------------------------

 solvation
 ----------------------------------------------------------------------
 Redundant internal coordinates taken from checkpoint file:
 1b-conf-16.chk
 Charge =  0 Multiplicity = 1

                         Standard orientation:
 ---------------------------------------------------------------------
 Center     Atomic      Atomic             Coordinates (Angstroms)
 Number     Number       Type             X           Y           Z
 ---------------------------------------------------------------------
      1          8           0        0.376805   -2.172281   -1.288095
      2          6           0        1.352933   -1.364122   -0.847109
      3          6           0        1.140051   -0.005066   -0.523892
      4          6           0       -0.197090    0.574285   -0.661254
      5          7           0       -1.221312   -0.048023   -1.122744
      6          6           0       -2.382094    0.841650   -0.959565
      7          6           0       -3.341923    0.311349    0.132710
      8          8           0       -4.222104   -0.663834   -0.384591
      9          6           0       -2.595107   -0.174847    1.385202
     10          6           0       -1.828852   -1.461428    1.175198
     11          8           0       -0.625226   -1.437181    1.755494
     12          8           0       -2.274779   -2.455909    0.633033
     13          6           0       -1.719526    2.212781   -0.679802
     14          6           0       -2.336944    3.134761    0.348084
     15          8           0       -0.379368    1.841300   -0.248201
     16          6           0        2.201249    0.780070   -0.051575
     17          6           0        3.455318    0.214968    0.092376
     18         17           0        4.781008    1.194491    0.680373
     19          6           0        3.682823   -1.127493   -0.225558
     20          6           0        2.636286   -1.909003   -0.691849
     21          1           0       -0.465173   -1.652882   -1.357836
     22          1           0       -2.953272    0.879338   -1.891359
     23          1           0       -3.986532    1.142530    0.434739
     24          1           0       -3.741142   -1.501806   -0.479101
     25          1           0       -3.315652   -0.362625    2.190105
     26          1           0       -1.897620    0.589509    1.740173
     27          1           0       -0.200070   -2.312850    1.640003
     28          1           0       -1.587751    2.739489   -1.631844
     29          1           0       -2.419349    2.656804    1.327415
     30          1           0       -1.723888    4.032301    0.452524
     31          1           0       -3.334179    3.441073    0.020424
     32          1           0        2.027298    1.822320    0.196390
     33          1           0        4.674435   -1.553321   -0.105835
     34          1           0        2.789576   -2.954257   -0.941858
 ---------------------------------------------------------------------

 SCF Done:  E(RB3LYP) =  -1395.25157771     A.U. after   13 cycles

  1  O    Isotropic =   187.3414   Anisotropy =   133.6881

  2  C    Isotropic =    15.6031   Anisotropy =   152.7848

  3  C    Isotropic =    64.9642   Anisotropy =   143.5360

  4  C    Isotropic =     7.7172   Anisotropy =    90.0170

  5  N    Isotropic =    19.3278   Anisotropy =   254.3193

  6  C    Isotropic =   103.7292   Anisotropy =    26.0894

  7  C    Isotropic =   106.4469   Anisotropy =    46.5873

  8  O    Isotropic =   278.4879   Anisotropy =    24.2751

  9  C    Isotropic =   145.9020   Anisotropy =    20.1857

 10  C    Isotropic =    -2.8809   Anisotropy =   118.4502

 11  O    Isotropic =   103.1593   Anisotropy =   178.2657

 12  O    Isotropic =   -57.2036   Anisotropy =   479.7798

 13  C    Isotropic =    99.4181   Anisotropy =    73.5522

 14  C    Isotropic =   168.2722   Anisotropy =    17.4337

 15  O    Isotropic =   121.7468   Anisotropy =   139.8204

 16  C    Isotropic =    48.5212   Anisotropy =   156.7332

 17  C    Isotropic =    47.7764   Anisotropy =    99.7075

 18  Cl   Isotropic =   709.3995   Anisotropy =   497.4829

 19  C    Isotropic =    42.2524   Anisotropy =   163.0679

 20  C    Isotropic =    59.2988   Anisotropy =   147.2573

 21  H    Isotropic =    20.4213   Anisotropy =    22.5145

 22  H    Isotropic =    27.2682   Anisotropy =     4.7741

 23  H    Isotropic =    27.5069   Anisotropy =     5.5134

 24  H    Isotropic =    27.5236   Anisotropy =    17.1885

 25  H    Isotropic =    29.0419   Anisotropy =     7.9823

 26  H    Isotropic =    29.3673   Anisotropy =     2.4760

 27  H    Isotropic =    25.3417   Anisotropy =     9.1284

 28  H    Isotropic =    26.7988   Anisotropy =     6.6279

 29  H    Isotropic =    30.5925   Anisotropy =     4.6255

 30  H    Isotropic =    30.0637   Anisotropy =     9.8526

 31  H    Isotropic =    30.3898   Anisotropy =     9.8043

 32  H    Isotropic =    23.7174   Anisotropy =    12.3103

 33  H    Isotropic =    24.0359   Anisotropy =     7.1161

 34  H    Isotropic =    24.5184   Anisotropy =     5.6848

 The electronic state is 1-A.
 Alpha  occ. eigenvalues -- -101.55963 -19.18270 -19.17508 -19.15680 -19.13018
 Alpha  occ. eigenvalues --  -19.12839 -14.31523 -10.32266 -10.28610 -10.25711
 Alpha  occ. eigenvalues --  -10.24051 -10.23830 -10.23697 -10.21358 -10.20545
 Alpha  occ. eigenvalues --  -10.19868 -10.19746 -10.18997 -10.18637 -10.16736
 Alpha  occ. eigenvalues --   -9.47412  -7.23848  -7.22907  -7.22882  -1.12541
 Alpha  occ. eigenvalues --   -1.11367  -1.07501  -1.04216  -1.02982  -0.92703
 Alpha  occ. eigenvalues --   -0.90163  -0.85051  -0.82023  -0.78695  -0.77105
 Alpha  occ. eigenvalues --   -0.74081  -0.71731  -0.68216  -0.64596  -0.63457
 Alpha  occ. eigenvalues --   -0.61270  -0.60088  -0.58926  -0.55101  -0.53604
 Alpha  occ. eigenvalues --   -0.53049  -0.51546  -0.50503  -0.49761  -0.49006
 Alpha  occ. eigenvalues --   -0.47761  -0.46826  -0.46070  -0.45426  -0.44216
 Alpha  occ. eigenvalues --   -0.43859  -0.43431  -0.42625  -0.41643  -0.40892
 Alpha  occ. eigenvalues --   -0.40293  -0.39707  -0.39342  -0.39064  -0.38731
 Alpha  occ. eigenvalues --   -0.37166  -0.36775  -0.36143  -0.34537  -0.34102
 Alpha  occ. eigenvalues --   -0.32400  -0.32374  -0.30598  -0.30169  -0.29648
 Alpha  occ. eigenvalues --   -0.28146  -0.26065  -0.23407
 Alpha virt. eigenvalues --   -0.06294  -0.02163  -0.01566   0.00044   0.00851
 Alpha virt. eigenvalues --    0.01244   0.01509   0.02160   0.02774   0.03253
 Alpha virt. eigenvalues --    0.03372   0.04286   0.04513   0.04894   0.05395

 Mulliken atomic charges:
              1
     1  O   -0.588951
     2  C   -0.097373
     3  C    0.116393
     4  C    0.661235
     5  N   -0.591862
     6  C    0.337550
     7  C    0.010151
     8  O   -0.471652
     9  C   -0.292492
    10  C    0.454781
    11  O   -0.357426
    12  O   -0.526617
    13  C    0.155547
    14  C   -0.540818
    15  O   -0.407016
    16  C   -0.750966
    17  C    1.032583
    18  Cl  -0.085485
    19  C   -0.596812
    20  C   -0.195310
    21  H    0.430852
    22  H    0.125823
    23  H    0.138167
    24  H    0.300924
    25  H    0.186358
    26  H    0.166315
    27  H    0.339363
    28  H    0.126501
    29  H    0.148775
    30  H    0.153572
    31  H    0.164589
    32  H    0.167028
    33  H    0.151018
    34  H    0.135254
 Sum of Mulliken atomic charges =   0.00000

 Dipole moment (field-independent basis, Debye):
    X=             -0.2673    Y=              3.9745    Z=              1.5735  Tot=              4.2830
 Quadrupole moment (field-independent basis, Debye-Ang):
   XX=           -137.2669   YY=           -120.1568   ZZ=           -123.1508
   XY=            -24.2493   XZ=             -4.9475   YZ=             -5.6415

 Normal termination of Gaussian 09 at Tue Mar 26 03:00:28 2019.
