 Gaussian 09, Revision B.01,
 Gaussian 09:  EM64L-G09RevB.01 12-Aug-2010

 ----------------------------------------------------------------------
 # b3lyp/6-311+G(2d,p) nmr guess=read geom=check integral(ultrafinegrid
 ) scrf=(iefpcm,read,solvent=methanol)
 ----------------------------------------------------------------------

 solvation
 ----------------------------------------------------------------------
 Redundant internal coordinates taken from checkpoint file:
 1b-conf-14.chk
 Charge =  0 Multiplicity = 1

                         Standard orientation:
 ---------------------------------------------------------------------
 Center     Atomic      Atomic             Coordinates (Angstroms)
 Number     Number       Type             X           Y           Z
 ---------------------------------------------------------------------
      1          8           0        0.656968   -2.554467    0.259318
      2          6           0        1.586903   -1.582052    0.152008
      3          6           0        1.319282   -0.212793    0.328398
      4          6           0       -0.019005    0.289581    0.692889
      5          7           0       -0.492793    1.436556    0.400640
      6          6           0       -1.890355    1.434069    0.868974
      7          6           0       -2.841118    1.452777   -0.346380
      8          8           0       -2.975801    2.787624   -0.798514
      9          6           0       -2.400302    0.590508   -1.549577
     10          6           0       -2.481445   -0.897151   -1.347687
     11          8           0       -3.733997   -1.355912   -1.424103
     12          8           0       -1.532397   -1.622860   -1.110999
     13          6           0       -1.943719    0.230225    1.828707
     14          6           0       -3.197913   -0.611415    1.896837
     15          8           0       -0.808592   -0.564030    1.393890
     16          6           0        2.350868    0.724675    0.166812
     17          6           0        3.632926    0.298006   -0.134659
     18         17           0        4.914694    1.476281   -0.319640
     19          6           0        3.918998   -1.060213   -0.286046
     20          6           0        2.896325   -1.987670   -0.145977
     21          1           0       -0.244109   -2.188628    0.213509
     22          1           0       -2.102195    2.356226    1.420337
     23          1           0       -3.840774    1.144622   -0.016538
     24          1           0       -2.086393    3.153025   -0.952234
     25          1           0       -1.369753    0.843587   -1.806878
     26          1           0       -3.062987    0.857131   -2.376684
     27          1           0       -3.734794   -2.326972   -1.276611
     28          1           0       -1.680846    0.586811    2.832101
     29          1           0       -3.484809   -1.015552    0.924958
     30          1           0       -3.051650   -1.443106    2.589120
     31          1           0       -4.023862    0.000383    2.271936
     32          1           0        2.127748    1.779190    0.297032
     33          1           0        4.929222   -1.384917   -0.516380
     34          1           0        3.086838   -3.048571   -0.276802
 ---------------------------------------------------------------------

 SCF Done:  E(RB3LYP) =  -1395.23680443     A.U. after   13 cycles

  1  O    Isotropic =   195.1079   Anisotropy =    96.7369

  2  C    Isotropic =    19.9715   Anisotropy =   145.0919

  3  C    Isotropic =    60.8080   Anisotropy =   135.7530

  4  C    Isotropic =     8.7981   Anisotropy =    83.5692

  5  N    Isotropic =    10.2635   Anisotropy =   271.5823

  6  C    Isotropic =   103.9217   Anisotropy =    22.9693

  7  C    Isotropic =   105.8445   Anisotropy =    47.0854

  8  O    Isotropic =   254.8975   Anisotropy =    51.1262

  9  C    Isotropic =   140.2885   Anisotropy =    41.8871

 10  C    Isotropic =    -0.2760   Anisotropy =   114.9650

 11  O    Isotropic =   102.2027   Anisotropy =   177.6006

 12  O    Isotropic =   -76.4395   Anisotropy =   483.7870

 13  C    Isotropic =    99.6187   Anisotropy =    73.9690

 14  C    Isotropic =   168.1519   Anisotropy =    16.5892

 15  O    Isotropic =   113.3699   Anisotropy =   145.0929

 16  C    Isotropic =    47.1010   Anisotropy =   151.1004

 17  C    Isotropic =    46.5898   Anisotropy =   101.0301

 18  Cl   Isotropic =   709.5141   Anisotropy =   494.9027

 19  C    Isotropic =    43.3579   Anisotropy =   162.0231

 20  C    Isotropic =    58.1251   Anisotropy =   147.9119

 21  H    Isotropic =    24.1233   Anisotropy =    18.1638

 22  H    Isotropic =    27.3148   Anisotropy =     4.6277

 23  H    Isotropic =    27.4001   Anisotropy =     3.7001

 24  H    Isotropic =    29.4340   Anisotropy =    13.5668

 25  H    Isotropic =    29.2149   Anisotropy =     1.9773

 26  H    Isotropic =    29.0358   Anisotropy =     6.1397

 27  H    Isotropic =    24.5808   Anisotropy =    11.4186

 28  H    Isotropic =    26.8857   Anisotropy =     6.6845

 29  H    Isotropic =    30.6278   Anisotropy =     8.0338

 30  H    Isotropic =    30.2032   Anisotropy =     9.7984

 31  H    Isotropic =    30.4313   Anisotropy =     9.9030

 32  H    Isotropic =    23.6028   Anisotropy =    11.7324

 33  H    Isotropic =    24.0470   Anisotropy =     7.0863

 34  H    Isotropic =    24.5779   Anisotropy =     5.8679

 The electronic state is 1-A.
 Alpha  occ. eigenvalues -- -101.55950 -19.18684 -19.17147 -19.15713 -19.13693
 Alpha  occ. eigenvalues --  -19.13268 -14.30742 -10.32514 -10.28027 -10.25562
 Alpha  occ. eigenvalues --  -10.24061 -10.23872 -10.23801 -10.21175 -10.20517
 Alpha  occ. eigenvalues --  -10.19710 -10.19567 -10.18629 -10.18585 -10.16676
 Alpha  occ. eigenvalues --   -9.47396  -7.23832  -7.22893  -7.22866  -1.12881
 Alpha  occ. eigenvalues --   -1.10987  -1.07300  -1.04244  -1.03767  -0.92314
 Alpha  occ. eigenvalues --   -0.90014  -0.84941  -0.81736  -0.78674  -0.77138
 Alpha  occ. eigenvalues --   -0.74065  -0.71425  -0.68228  -0.64745  -0.62548
 Alpha  occ. eigenvalues --   -0.62026  -0.60358  -0.59028  -0.56020  -0.53272
 Alpha  occ. eigenvalues --   -0.52337  -0.51512  -0.50847  -0.50655  -0.48385
 Alpha  occ. eigenvalues --   -0.47911  -0.46643  -0.46407  -0.45506  -0.44532
 Alpha  occ. eigenvalues --   -0.43879  -0.43083  -0.42115  -0.41255  -0.40902
 Alpha  occ. eigenvalues --   -0.40114  -0.39788  -0.39052  -0.38796  -0.38606
 Alpha  occ. eigenvalues --   -0.37013  -0.36541  -0.35482  -0.34599  -0.34113
 Alpha  occ. eigenvalues --   -0.32364  -0.32253  -0.31372  -0.29824  -0.29187
 Alpha  occ. eigenvalues --   -0.28212  -0.25836  -0.23508
 Alpha virt. eigenvalues --   -0.05597  -0.02599  -0.02160   0.00061   0.00706
 Alpha virt. eigenvalues --    0.01079   0.01540   0.01755   0.02447   0.02843
 Alpha virt. eigenvalues --    0.03635   0.04111   0.04383   0.04747   0.05114

 Mulliken atomic charges:
              1
     1  O   -0.540093
     2  C   -0.318475
     3  C    0.296481
     4  C    0.583116
     5  N   -0.351673
     6  C    0.206716
     7  C   -0.011105
     8  O   -0.480108
     9  C   -0.341355
    10  C    0.490312
    11  O   -0.361445
    12  O   -0.589718
    13  C    0.461243
    14  C   -0.590928
    15  O   -0.357134
    16  C   -0.972621
    17  C    1.051755
    18  Cl  -0.081341
    19  C   -0.657333
    20  C   -0.141367
    21  H    0.370004
    22  H    0.128528
    23  H    0.149965
    24  H    0.306009
    25  H    0.180042
    26  H    0.174275
    27  H    0.351404
    28  H    0.126808
    29  H    0.146630
    30  H    0.156838
    31  H    0.166434
    32  H    0.163752
    33  H    0.150299
    34  H    0.134085
 Sum of Mulliken atomic charges =   0.00000

 Dipole moment (field-independent basis, Debye):
    X=             -5.0652    Y=             -1.3949    Z=              1.2659  Tot=              5.4041
 Quadrupole moment (field-independent basis, Debye-Ang):
   XX=           -118.4704   YY=           -128.4395   ZZ=           -119.4268
   XY=              5.0855   XZ=             -5.8700   YZ=              4.3029

 Normal termination of Gaussian 09 at Tue Mar 26 02:58:56 2019.
