 Gaussian 09, Revision B.01,
 Gaussian 09:  EM64L-G09RevB.01 12-Aug-2010

 ----------------------------------------------------------------------
 # b3lyp/6-311+G(2d,p) nmr guess=read geom=check integral(ultrafinegrid
 ) scrf=(iefpcm,read,solvent=methanol)
 ----------------------------------------------------------------------

 solvation
 ----------------------------------------------------------------------
 Redundant internal coordinates taken from checkpoint file:
 1b-conf-18.chk
 Charge =  0 Multiplicity = 1

                         Standard orientation:
 ---------------------------------------------------------------------
 Center     Atomic      Atomic             Coordinates (Angstroms)
 Number     Number       Type             X           Y           Z
 ---------------------------------------------------------------------
      1          8           0       -0.403911    2.253489   -0.409991
      2          6           0       -1.494488    1.483526   -0.256044
      3          6           0       -1.435483    0.075535   -0.228703
      4          6           0       -0.141947   -0.589548   -0.378297
      5          7           0        0.977794    0.023637   -0.501705
      6          6           0        2.007426   -0.998946   -0.716897
      7          6           0        3.281929   -0.690367    0.062311
      8          8           0        4.212523   -1.677630   -0.341453
      9          6           0        3.786813    0.723085   -0.257633
     10          6           0        2.998446    1.775845    0.482322
     11          8           0        2.600128    2.783606   -0.302734
     12          8           0        2.782129    1.749811    1.675037
     13          6           0        1.288176   -2.323566   -0.356198
     14          6           0        1.559432   -2.882119    1.026820
     15          8           0       -0.119864   -1.933160   -0.416921
     16          6           0       -2.606790   -0.675665   -0.062426
     17          6           0       -3.818759   -0.024893    0.075819
     18         17           0       -5.283083   -0.959237    0.283382
     19          6           0       -3.892053    1.369908    0.052821
     20          6           0       -2.735716    2.115759   -0.112397
     21          1           0        0.391475    1.672345   -0.516456
     22          1           0        2.281888   -0.995922   -1.782590
     23          1           0        3.092301   -0.751828    1.141655
     24          1           0        4.979387   -1.665608    0.256602
     25          1           0        3.771641    0.914240   -1.333962
     26          1           0        4.822983    0.807610    0.091324
     27          1           0        2.143957    3.455014    0.249161
     28          1           0        1.432560   -3.085282   -1.124398
     29          1           0        1.334221   -2.139043    1.798578
     30          1           0        0.932828   -3.760533    1.196868
     31          1           0        2.608900   -3.176298    1.111023
     32          1           0       -2.550251   -1.759861   -0.043130
     33          1           0       -4.852616    1.865521    0.163330
     34          1           0       -2.771381    3.200957   -0.134062
 ---------------------------------------------------------------------

 SCF Done:  E(RB3LYP) =  -1395.25597880     A.U. after   13 cycles

  1  O    Isotropic =   186.3120   Anisotropy =   135.8182

  2  C    Isotropic =    16.8640   Anisotropy =   150.5795

  3  C    Isotropic =    65.9023   Anisotropy =   141.9419

  4  C    Isotropic =    10.9315   Anisotropy =    85.8636

  5  N    Isotropic =    27.2607   Anisotropy =   219.8138

  6  C    Isotropic =   104.7401   Anisotropy =    39.1984

  7  C    Isotropic =   107.8447   Anisotropy =    49.0898

  8  O    Isotropic =   271.8724   Anisotropy =    73.8229

  9  C    Isotropic =   136.5340   Anisotropy =    35.1048

 10  C    Isotropic =     0.2826   Anisotropy =   112.7408

 11  O    Isotropic =   105.6924   Anisotropy =   180.9772

 12  O    Isotropic =   -57.6052   Anisotropy =   503.7213

 13  C    Isotropic =    98.8218   Anisotropy =    77.3662

 14  C    Isotropic =   166.9459   Anisotropy =    22.6256

 15  O    Isotropic =   118.6647   Anisotropy =   116.3911

 16  C    Isotropic =    49.1688   Anisotropy =   156.2077

 17  C    Isotropic =    48.0373   Anisotropy =    99.6299

 18  Cl   Isotropic =   709.3523   Anisotropy =   495.8651

 19  C    Isotropic =    42.7224   Anisotropy =   162.6268

 20  C    Isotropic =    59.7927   Anisotropy =   146.8298

 21  H    Isotropic =    20.3021   Anisotropy =    23.9409

 22  H    Isotropic =    27.4354   Anisotropy =     4.0054

 23  H    Isotropic =    27.1553   Anisotropy =     2.0785

 24  H    Isotropic =    30.0059   Anisotropy =    18.6722

 25  H    Isotropic =    28.8836   Anisotropy =     3.8212

 26  H    Isotropic =    29.0504   Anisotropy =     6.5141

 27  H    Isotropic =    24.8172   Anisotropy =    10.7148

 28  H    Isotropic =    26.5986   Anisotropy =     4.7815

 29  H    Isotropic =    30.5094   Anisotropy =     4.6797

 30  H    Isotropic =    30.4853   Anisotropy =     9.5316

 31  H    Isotropic =    30.2474   Anisotropy =     8.3321

 32  H    Isotropic =    23.7463   Anisotropy =    12.3971

 33  H    Isotropic =    24.0500   Anisotropy =     7.2346

 34  H    Isotropic =    24.5451   Anisotropy =     6.0767

 The electronic state is 1-A.
 Alpha  occ. eigenvalues -- -101.55943 -19.18110 -19.17327 -19.15436 -19.13789
 Alpha  occ. eigenvalues --  -19.12468 -14.31421 -10.31871 -10.28430 -10.25548
 Alpha  occ. eigenvalues --  -10.23833 -10.23772 -10.23613 -10.21417 -10.20433
 Alpha  occ. eigenvalues --  -10.19807 -10.19658 -10.18579 -10.18553 -10.16187
 Alpha  occ. eigenvalues --   -9.47394  -7.23829  -7.22889  -7.22864  -1.12247
 Alpha  occ. eigenvalues --   -1.11066  -1.07276  -1.04159  -1.03193  -0.92695
 Alpha  occ. eigenvalues --   -0.90165  -0.85042  -0.81907  -0.78810  -0.76987
 Alpha  occ. eigenvalues --   -0.74051  -0.71518  -0.67969  -0.64566  -0.63181
 Alpha  occ. eigenvalues --   -0.61279  -0.59211  -0.58605  -0.55045  -0.54766
 Alpha  occ. eigenvalues --   -0.52554  -0.50751  -0.50546  -0.49629  -0.49474
 Alpha  occ. eigenvalues --   -0.47766  -0.47133  -0.46360  -0.44768  -0.44136
 Alpha  occ. eigenvalues --   -0.43609  -0.43189  -0.41942  -0.41200  -0.41090
 Alpha  occ. eigenvalues --   -0.39792  -0.39457  -0.39084  -0.38843  -0.38419
 Alpha  occ. eigenvalues --   -0.37757  -0.37088  -0.36222  -0.34376  -0.33537
 Alpha  occ. eigenvalues --   -0.32382  -0.32372  -0.30450  -0.30177  -0.28881
 Alpha  occ. eigenvalues --   -0.28511  -0.26253  -0.23410
 Alpha virt. eigenvalues --   -0.06034  -0.02060  -0.01308   0.00062   0.00848
 Alpha virt. eigenvalues --    0.01121   0.01271   0.01935   0.02696   0.03239
 Alpha virt. eigenvalues --    0.03487   0.03878   0.04547   0.04941   0.05197

 Mulliken atomic charges:
              1
     1  O   -0.668467
     2  C   -0.036633
     3  C    0.201532
     4  C    0.695287
     5  N   -0.465645
     6  C    0.556112
     7  C    0.103706
     8  O   -0.494635
     9  C   -0.430414
    10  C    0.372678
    11  O   -0.398689
    12  O   -0.496007
    13  C   -0.164220
    14  C   -0.412872
    15  O   -0.474012
    16  C   -0.850044
    17  C    1.066757
    18  Cl  -0.083846
    19  C   -0.622961
    20  C   -0.210864
    21  H    0.496367
    22  H    0.114819
    23  H    0.134292
    24  H    0.315759
    25  H    0.163198
    26  H    0.177641
    27  H    0.353581
    28  H    0.134923
    29  H    0.159113
    30  H    0.150766
    31  H    0.161293
    32  H    0.166616
    33  H    0.150713
    34  H    0.134159
 Sum of Mulliken atomic charges =   0.00000

 Dipole moment (field-independent basis, Debye):
    X=              4.1699    Y=             -1.1738    Z=             -0.6732  Tot=              4.3840
 Quadrupole moment (field-independent basis, Debye-Ang):
   XX=           -114.1231   YY=           -116.3449   ZZ=           -131.5672
   XY=            -10.7976   XZ=              0.4033   YZ=             -3.4371

 Normal termination of Gaussian 09 at Tue Mar 26 03:00:01 2019.
