 Gaussian 09, Revision B.01,
 Gaussian 09:  EM64L-G09RevB.01 12-Aug-2010

 ----------------------------------------------------------------------
 # b3lyp/6-311+G(2d,p) nmr guess=read geom=check integral(ultrafinegrid
 ) scrf=(iefpcm,read,solvent=methanol)
 ----------------------------------------------------------------------

 olvation
 ----------------------------------------------------------------------
 Redundant internal coordinates taken from checkpoint file:
 1b-conf-1.chk
 Charge =  0 Multiplicity = 1

                         Standard orientation:
 ---------------------------------------------------------------------
 Center     Atomic      Atomic             Coordinates (Angstroms)
 Number     Number       Type             X           Y           Z
 ---------------------------------------------------------------------
      1          8           0       -1.329885    2.665237    0.146701
      2          6           0       -2.228487    1.675251    0.024835
      3          6           0       -1.858133    0.320020   -0.102637
      4          6           0       -0.441195   -0.039754   -0.117148
      5          7           0        0.524103    0.795307    0.011773
      6          6           0        1.764801    0.028404   -0.175960
      7          6           0        2.888364    0.604095    0.687310
      8          8           0        2.573893    0.595079    2.066321
      9          6           0        4.207795   -0.141276    0.529036
     10          6           0        4.850184    0.061250   -0.820283
     11          8           0        5.927184   -0.715150   -0.973585
     12          8           0        4.467987    0.835416   -1.671363
     13          6           0        1.305155   -1.434993    0.038181
     14          6           0        1.392380   -2.027394    1.435201
     15          8           0       -0.116825   -1.335074   -0.291665
     16          6           0       -2.841695   -0.670956   -0.221742
     17          6           0       -4.176238   -0.309389   -0.215489
     18         17           0       -5.406766   -1.543180   -0.366153
     19          6           0       -4.557850    1.029062   -0.091360
     20          6           0       -3.588006    2.012189    0.027933
     21          1           0       -0.418269    2.274712    0.121326
     22          1           0        2.074155    0.155244   -1.223111
     23          1           0        3.036337    1.637277    0.342263
     24          1           0        1.769708    1.125645    2.200074
     25          1           0        4.106078   -1.216663    0.706837
     26          1           0        4.912465    0.228059    1.283515
     27          1           0        6.327509   -0.536826   -1.850835
     28          1           0        1.747814   -2.104944   -0.702639
     29          1           0        0.873922   -1.394532    2.158358
     30          1           0        0.928488   -3.016869    1.425427
     31          1           0        2.428389   -2.129087    1.763376
     32          1           0       -2.546011   -1.711342   -0.318232
     33          1           0       -5.611011    1.295457   -0.088523
     34          1           0       -3.864557    3.057683    0.125799
 ---------------------------------------------------------------------

 SCF Done:  E(RB3LYP) =  -1395.25386071     A.U. after   14 cycles

  1  O    Isotropic =   185.3174   Anisotropy =   134.4363

  2  C    Isotropic =    16.4020   Anisotropy =   151.0427

  3  C    Isotropic =    65.4823   Anisotropy =   141.9318

  4  C    Isotropic =     8.9685   Anisotropy =    92.7387

  5  N    Isotropic =    24.1076   Anisotropy =   217.8764

  6  C    Isotropic =   109.0585   Anisotropy =    45.2620

  7  C    Isotropic =   109.9756   Anisotropy =    47.0843

  8  O    Isotropic =   284.3982   Anisotropy =    64.2819

  9  C    Isotropic =   144.5364   Anisotropy =    44.4833

 10  C    Isotropic =     0.7947   Anisotropy =   109.0875

 11  O    Isotropic =   117.1340   Anisotropy =   195.4296

 12  O    Isotropic =   -62.8483   Anisotropy =   507.0390

 13  C    Isotropic =    99.0128   Anisotropy =    76.9346

 14  C    Isotropic =   164.5299   Anisotropy =    17.0139

 15  O    Isotropic =   117.3292   Anisotropy =   120.5231

 16  C    Isotropic =    49.0959   Anisotropy =   156.4034

 17  C    Isotropic =    48.0977   Anisotropy =    99.5634

 18  Cl   Isotropic =   709.5108   Anisotropy =   495.4145

 19  C    Isotropic =    42.7178   Anisotropy =   162.7018

 20  C    Isotropic =    59.6492   Anisotropy =   146.8831

 21  H    Isotropic =    20.0248   Anisotropy =    25.5604

 22  H    Isotropic =    26.9901   Anisotropy =     7.0490

 23  H    Isotropic =    26.8518   Anisotropy =     5.8083

 24  H    Isotropic =    29.6756   Anisotropy =    16.4788

 25  H    Isotropic =    28.7947   Anisotropy =     4.6245

 26  H    Isotropic =    28.7644   Anisotropy =     6.7537

 27  H    Isotropic =    24.8329   Anisotropy =    12.2747

 28  H    Isotropic =    26.6716   Anisotropy =     4.0178

 29  H    Isotropic =    30.3076   Anisotropy =     3.7179

 30  H    Isotropic =    30.5953   Anisotropy =     9.4836

 31  H    Isotropic =    30.5101   Anisotropy =     7.8074

 32  H    Isotropic =    23.6844   Anisotropy =    12.4907

 33  H    Isotropic =    24.0386   Anisotropy =     7.2206

 34  H    Isotropic =    24.4930   Anisotropy =     5.6040

 The electronic state is 1-A.
 Alpha  occ. eigenvalues -- -101.55950 -19.18246 -19.17296 -19.15527 -19.13294
 Alpha  occ. eigenvalues --  -19.12889 -14.31420 -10.32166 -10.28346 -10.25584
 Alpha  occ. eigenvalues --  -10.23908 -10.23776 -10.23463 -10.21166 -10.20440
 Alpha  occ. eigenvalues --  -10.19804 -10.19670 -10.18988 -10.18564 -10.16071
 Alpha  occ. eigenvalues --   -9.47401  -7.23836  -7.22896  -7.22871  -1.12506
 Alpha  occ. eigenvalues --   -1.11057  -1.07362  -1.03936  -1.03511  -0.92442
 Alpha  occ. eigenvalues --   -0.90163  -0.85002  -0.81855  -0.79211  -0.76716
 Alpha  occ. eigenvalues --   -0.74041  -0.71832  -0.67805  -0.64599  -0.63449
 Alpha  occ. eigenvalues --   -0.61153  -0.59486  -0.57867  -0.55382  -0.54194
 Alpha  occ. eigenvalues --   -0.52015  -0.51001  -0.50668  -0.49991  -0.49200
 Alpha  occ. eigenvalues --   -0.47791  -0.47151  -0.46548  -0.45557  -0.44832
 Alpha  occ. eigenvalues --   -0.43838  -0.42732  -0.41919  -0.41114  -0.40732
 Alpha  occ. eigenvalues --   -0.40418  -0.38973  -0.38870  -0.38686  -0.38482
 Alpha  occ. eigenvalues --   -0.37556  -0.36982  -0.35924  -0.34678  -0.34124
 Alpha  occ. eigenvalues --   -0.32406  -0.32382  -0.30699  -0.30146  -0.28742
 Alpha  occ. eigenvalues --   -0.28256  -0.26207  -0.23405
 Alpha virt. eigenvalues --   -0.06062  -0.02065  -0.01310  -0.00248   0.00746
 Alpha virt. eigenvalues --    0.00918   0.01487   0.02044   0.02537   0.03113
 Alpha virt. eigenvalues --    0.03472   0.03690   0.04600   0.04924   0.05027

 Mulliken atomic charges:
              1
     1  O   -0.633601
     2  C   -0.011871
     3  C    0.154235
     4  C    0.771077
     5  N   -0.513304
     6  C    0.389532
     7  C    0.119670
     8  O   -0.534413
     9  C   -0.343907
    10  C    0.525283
    11  O   -0.422472
    12  O   -0.554122
    13  C   -0.051867
    14  C   -0.477003
    15  O   -0.490572
    16  C   -0.895512
    17  C    1.033315
    18  Cl  -0.078733
    19  C   -0.636700
    20  C   -0.124852
    21  H    0.469077
    22  H    0.132085
    23  H    0.128625
    24  H    0.328330
    25  H    0.165578
    26  H    0.172938
    27  H    0.347668
    28  H    0.134477
    29  H    0.154868
    30  H    0.149212
    31  H    0.142179
    32  H    0.166067
    33  H    0.150230
    34  H    0.134482
 Sum of Mulliken atomic charges =   0.00000

 Dipole moment (field-independent basis, Debye):
    X=              3.9442    Y=             -2.2963    Z=              0.2797  Tot=              4.5725
 Quadrupole moment (field-independent basis, Debye-Ang):
   XX=           -112.9389   YY=           -127.0939   ZZ=           -128.8062
   XY=            -14.9448   XZ=             -5.9181   YZ=              4.2353

 Normal termination of Gaussian 09 at Tue Mar 26 02:59:56 2019.
