 Gaussian 09, Revision B.01,
 Gaussian 09:  EM64L-G09RevB.01 12-Aug-2010

 ----------------------------------------------------------------------
 # b3lyp/6-311+G(2d,p) nmr guess=read geom=check integral(ultrafinegrid
 ) scrf=(iefpcm,read,solvent=methanol)
 ----------------------------------------------------------------------

 olvation
 ----------------------------------------------------------------------
 Redundant internal coordinates taken from checkpoint file:
 1b-conf-6.chk
 Charge =  0 Multiplicity = 1

                         Standard orientation:
 ---------------------------------------------------------------------
 Center     Atomic      Atomic             Coordinates (Angstroms)
 Number     Number       Type             X           Y           Z
 ---------------------------------------------------------------------
      1          8           0        1.747419    2.688818    1.218881
      2          6           0        2.255581    1.523965    0.763006
      3          6           0        1.578330    0.626383   -0.084109
      4          6           0        0.214134    0.861007   -0.582859
      5          7           0       -0.397073    0.169166   -1.461734
      6          6           0       -1.770067    0.696708   -1.527299
      7          6           0       -2.739055   -0.320250   -0.901995
      8          8           0       -2.913387   -1.423154   -1.775160
      9          6           0       -2.292874   -0.812553    0.473653
     10          6           0       -3.405721   -1.533275    1.195315
     11          8           0       -2.936175   -2.402390    2.097429
     12          8           0       -4.589089   -1.342633    1.018543
     13          6           0       -1.662648    2.072687   -0.838528
     14          6           0       -2.811881    2.568755    0.010779
     15          8           0       -0.467905    1.903904   -0.023578
     16          6           0        2.219691   -0.553915   -0.493429
     17          6           0        3.503880   -0.829256   -0.069025
     18         17           0        4.289339   -2.304251   -0.582113
     19          6           0        4.185739    0.055847    0.770554
     20          6           0        3.560255    1.220891    1.178319
     21          1           0        0.837404    2.821421    0.900377
     22          1           0       -2.074857    0.817599   -2.571427
     23          1           0       -3.728782    0.141142   -0.819401
     24          1           0       -2.042380   -1.823084   -1.946709
     25          1           0       -1.973329    0.012560    1.123905
     26          1           0       -1.431886   -1.481694    0.379835
     27          1           0       -3.691610   -2.814386    2.567034
     28          1           0       -1.406003    2.824814   -1.594624
     29          1           0       -3.068840    1.871752    0.811637
     30          1           0       -2.555568    3.531310    0.459113
     31          1           0       -3.693005    2.712849   -0.620807
     32          1           0        1.686606   -1.239490   -1.145157
     33          1           0        5.195897   -0.170870    1.099328
     34          1           0        4.068014    1.925853    1.829740
 ---------------------------------------------------------------------

 SCF Done:  E(RB3LYP) =  -1395.24883408     A.U. after   13 cycles

  1  O    Isotropic =   200.7840   Anisotropy =    93.0986

  2  C    Isotropic =    18.5531   Anisotropy =   144.2665

  3  C    Isotropic =    65.0642   Anisotropy =   136.3032

  4  C    Isotropic =    10.4649   Anisotropy =    69.9649

  5  N    Isotropic =    14.7839   Anisotropy =   276.1815

  6  C    Isotropic =   106.4872   Anisotropy =    24.1617

  7  C    Isotropic =   109.0059   Anisotropy =    42.7292

  8  O    Isotropic =   269.4384   Anisotropy =    42.9981

  9  C    Isotropic =   142.3089   Anisotropy =    34.1889

 10  C    Isotropic =     0.1436   Anisotropy =   106.6619

 11  O    Isotropic =   113.1869   Anisotropy =   192.0428

 12  O    Isotropic =   -55.4539   Anisotropy =   505.8035

 13  C    Isotropic =    97.5772   Anisotropy =    75.2597

 14  C    Isotropic =   168.9340   Anisotropy =    17.7682

 15  O    Isotropic =   122.0279   Anisotropy =   157.7034

 16  C    Isotropic =    47.0629   Anisotropy =   155.0340

 17  C    Isotropic =    46.7299   Anisotropy =   101.3372

 18  Cl   Isotropic =   709.5357   Anisotropy =   492.2685

 19  C    Isotropic =    42.0852   Anisotropy =   162.9463

 20  C    Isotropic =    58.1673   Anisotropy =   147.3788

 21  H    Isotropic =    23.5101   Anisotropy =    20.7763

 22  H    Isotropic =    27.4295   Anisotropy =     4.7186

 23  H    Isotropic =    27.3901   Anisotropy =     3.6992

 24  H    Isotropic =    29.8407   Anisotropy =    14.8462

 25  H    Isotropic =    29.0787   Anisotropy =     4.7775

 26  H    Isotropic =    29.3463   Anisotropy =     4.4070

 27  H    Isotropic =    24.8744   Anisotropy =    12.7727

 28  H    Isotropic =    26.7006   Anisotropy =     6.2592

 29  H    Isotropic =    30.5150   Anisotropy =     5.1223

 30  H    Isotropic =    30.0830   Anisotropy =     9.8634

 31  H    Isotropic =    30.3468   Anisotropy =     9.6316

 32  H    Isotropic =    23.3171   Anisotropy =    12.0945

 33  H    Isotropic =    24.0257   Anisotropy =     7.1640

 34  H    Isotropic =    24.5297   Anisotropy =     5.6471

 The electronic state is 1-A.
 Alpha  occ. eigenvalues -- -101.56004 -19.18143 -19.17880 -19.16302 -19.13450
 Alpha  occ. eigenvalues --  -19.12680 -14.30817 -10.31870 -10.28305 -10.25940
 Alpha  occ. eigenvalues --  -10.24129 -10.23872 -10.23289 -10.21143 -10.20749
 Alpha  occ. eigenvalues --  -10.19742 -10.19729 -10.18695 -10.18661 -10.16793
 Alpha  occ. eigenvalues --   -9.47456  -7.23892  -7.22952  -7.22925  -1.12312
 Alpha  occ. eigenvalues --   -1.11322  -1.07702  -1.03997  -1.03255  -0.92524
 Alpha  occ. eigenvalues --   -0.90187  -0.85122  -0.81929  -0.78616  -0.77217
 Alpha  occ. eigenvalues --   -0.74274  -0.71606  -0.68336  -0.64962  -0.62364
 Alpha  occ. eigenvalues --   -0.61699  -0.60114  -0.59122  -0.55991  -0.53358
 Alpha  occ. eigenvalues --   -0.52217  -0.51063  -0.50796  -0.50249  -0.48422
 Alpha  occ. eigenvalues --   -0.47945  -0.47181  -0.46002  -0.45671  -0.44581
 Alpha  occ. eigenvalues --   -0.43716  -0.43295  -0.42198  -0.41533  -0.40685
 Alpha  occ. eigenvalues --   -0.40546  -0.39856  -0.39105  -0.38981  -0.38206
 Alpha  occ. eigenvalues --   -0.37599  -0.36999  -0.35565  -0.34274  -0.33928
 Alpha  occ. eigenvalues --   -0.32646  -0.32416  -0.30411  -0.29901  -0.29796
 Alpha  occ. eigenvalues --   -0.28484  -0.25842  -0.23616
 Alpha virt. eigenvalues --   -0.06258  -0.02181  -0.01129  -0.00157   0.00828
 Alpha virt. eigenvalues --    0.01016   0.01272   0.01872   0.02564   0.02877
 Alpha virt. eigenvalues --    0.03416   0.03578   0.04618   0.04733   0.05590

 Mulliken atomic charges:
              1
     1  O   -0.577860
     2  C   -0.197700
     3  C    0.136931
     4  C    0.585721
     5  N   -0.414180
     6  C    0.259044
     7  C    0.048128
     8  O   -0.501517
     9  C   -0.326763
    10  C    0.597721
    11  O   -0.436921
    12  O   -0.563401
    13  C    0.185962
    14  C   -0.514971
    15  O   -0.452597
    16  C   -0.862702
    17  C    1.016594
    18  Cl  -0.072829
    19  C   -0.605716
    20  C   -0.028755
    21  H    0.391781
    22  H    0.125102
    23  H    0.139531
    24  H    0.298861
    25  H    0.182887
    26  H    0.182706
    27  H    0.350580
    28  H    0.130795
    29  H    0.152549
    30  H    0.153653
    31  H    0.164909
    32  H    0.166550
    33  H    0.151178
    34  H    0.134728
 Sum of Mulliken atomic charges =   0.00000

 Dipole moment (field-independent basis, Debye):
    X=              0.4196    Y=              3.7500    Z=              1.9207  Tot=              4.2341
 Quadrupole moment (field-independent basis, Debye-Ang):
   XX=           -142.9045   YY=           -117.9401   ZZ=           -123.4898
   XY=             -6.9337   XZ=             -1.7128   YZ=             -9.5272

 Normal termination of Gaussian 09 at Tue Mar 26 03:04:08 2019.
