 Gaussian 09, Revision B.01,
 Gaussian 09:  EM64L-G09RevB.01 12-Aug-2010

 ----------------------------------------------------------------------
 # b3lyp/6-311+G(2d,p) nmr guess=read geom=check integral(ultrafinegrid
 ) scrf=(iefpcm,read,solvent=methanol)
 ----------------------------------------------------------------------

 solvation
 ----------------------------------------------------------------------
 Redundant internal coordinates taken from checkpoint file:
 1b-conf-19.chk
 Charge =  0 Multiplicity = 1

                         Standard orientation:
 ---------------------------------------------------------------------
 Center     Atomic      Atomic             Coordinates (Angstroms)
 Number     Number       Type             X           Y           Z
 ---------------------------------------------------------------------
      1          8           0       -0.837703   -2.751893   -0.252994
      2          6           0       -1.634050   -1.661813   -0.199741
      3          6           0       -1.214741   -0.345054   -0.462690
      4          6           0        0.167801    0.003168   -0.827775
      5          7           0        0.648240    1.180948   -0.916081
      6          6           0        2.092042    1.018955   -1.156440
      7          6           0        2.896819    1.413984    0.107280
      8          8           0        3.152835    2.809941    0.087716
      9          6           0        2.235191    1.078755    1.459726
     10          6           0        2.093398   -0.390930    1.769319
     11          8           0        0.822474   -0.776383    1.932466
     12          8           0        3.031582   -1.150949    1.902219
     13          6           0        2.198522   -0.427871   -1.673785
     14          6           0        3.432455   -1.247163   -1.375973
     15          8           0        1.014704   -1.034745   -1.087062
     16          6           0       -2.137251    0.707979   -0.349356
     17          6           0       -3.446554    0.450599    0.006425
     18         17           0       -4.585357    1.772336    0.133771
     19          6           0       -3.875842   -0.854075    0.265434
     20          6           0       -2.969459   -1.895811    0.162633
     21          1           0        0.060344   -2.517886   -0.540601
     22          1           0        2.419964    1.708142   -1.941157
     23          1           0        3.882352    0.937688    0.057236
     24          1           0        2.308377    3.285089   -0.002312
     25          1           0        1.263078    1.570666    1.524144
     26          1           0        2.895682    1.492700    2.227379
     27          1           0        0.804787   -1.731733    2.152013
     28          1           0        2.013008   -0.412536   -2.755008
     29          1           0        3.611900   -1.344011   -0.304384
     30          1           0        3.331701   -2.244396   -1.809969
     31          1           0        4.300895   -0.766593   -1.836931
     32          1           0       -1.799371    1.720375   -0.547438
     33          1           0       -4.907363   -1.046878    0.544476
     34          1           0       -3.273081   -2.919077    0.361895
 ---------------------------------------------------------------------

 SCF Done:  E(RB3LYP) =  -1395.23984684     A.U. after   13 cycles

  1  O    Isotropic =   200.7768   Anisotropy =    91.6643

  2  C    Isotropic =    18.9156   Anisotropy =   144.2510

  3  C    Isotropic =    62.8618   Anisotropy =   138.9001

  4  C    Isotropic =     9.5399   Anisotropy =    76.3226

  5  N    Isotropic =    13.1549   Anisotropy =   279.6493

  6  C    Isotropic =   104.2204   Anisotropy =    21.6459

  7  C    Isotropic =   107.1523   Anisotropy =    48.8922

  8  O    Isotropic =   255.9662   Anisotropy =    48.2515

  9  C    Isotropic =   140.5656   Anisotropy =    41.7307

 10  C    Isotropic =     0.9794   Anisotropy =   112.5826

 11  O    Isotropic =    99.1810   Anisotropy =   185.6928

 12  O    Isotropic =   -70.4468   Anisotropy =   511.5664

 13  C    Isotropic =    97.8702   Anisotropy =    73.8852

 14  C    Isotropic =   168.5551   Anisotropy =    18.3253

 15  O    Isotropic =   121.0179   Anisotropy =   145.5141

 16  C    Isotropic =    47.5839   Anisotropy =   154.8477

 17  C    Isotropic =    46.6170   Anisotropy =   100.8087

 18  Cl   Isotropic =   709.6390   Anisotropy =   494.9283

 19  C    Isotropic =    42.7121   Anisotropy =   162.2263

 20  C    Isotropic =    57.9857   Anisotropy =   147.4842

 21  H    Isotropic =    23.8399   Anisotropy =    19.6219

 22  H    Isotropic =    27.4116   Anisotropy =     4.4547

 23  H    Isotropic =    27.3878   Anisotropy =     4.2192

 24  H    Isotropic =    29.6132   Anisotropy =    13.8709

 25  H    Isotropic =    29.1667   Anisotropy =     1.7457

 26  H    Isotropic =    29.1626   Anisotropy =     6.7403

 27  H    Isotropic =    24.9831   Anisotropy =     9.4411

 28  H    Isotropic =    26.8542   Anisotropy =     6.5188

 29  H    Isotropic =    30.2478   Anisotropy =     7.6333

 30  H    Isotropic =    30.2224   Anisotropy =     9.8744

 31  H    Isotropic =    30.4553   Anisotropy =     9.9625

 32  H    Isotropic =    23.2871   Anisotropy =    11.9570

 33  H    Isotropic =    24.0521   Anisotropy =     7.0330

 34  H    Isotropic =    24.5819   Anisotropy =     5.7863

 The electronic state is 1-A.
 Alpha  occ. eigenvalues -- -101.55979 -19.18263 -19.17790 -19.16301 -19.13637
 Alpha  occ. eigenvalues --  -19.12765 -14.30769 -10.32045 -10.28250 -10.25843
 Alpha  occ. eigenvalues --  -10.24041 -10.23949 -10.23848 -10.21245 -10.20669
 Alpha  occ. eigenvalues --  -10.19676 -10.19670 -10.18669 -10.18607 -10.16418
 Alpha  occ. eigenvalues --   -9.47429  -7.23864  -7.22925  -7.22898  -1.12456
 Alpha  occ. eigenvalues --   -1.11336  -1.07690  -1.04045  -1.03376  -0.92504
 Alpha  occ. eigenvalues --   -0.90115  -0.85054  -0.81741  -0.78492  -0.77217
 Alpha  occ. eigenvalues --   -0.74229  -0.71328  -0.68317  -0.65047  -0.62428
 Alpha  occ. eigenvalues --   -0.61949  -0.60058  -0.59108  -0.55877  -0.53403
 Alpha  occ. eigenvalues --   -0.52037  -0.51712  -0.50785  -0.50427  -0.48274
 Alpha  occ. eigenvalues --   -0.47513  -0.47005  -0.46104  -0.45755  -0.44711
 Alpha  occ. eigenvalues --   -0.43653  -0.43457  -0.41870  -0.41516  -0.40839
 Alpha  occ. eigenvalues --   -0.40396  -0.40087  -0.39029  -0.38791  -0.38644
 Alpha  occ. eigenvalues --   -0.36931  -0.36793  -0.35386  -0.34418  -0.33659
 Alpha  occ. eigenvalues --   -0.32578  -0.32389  -0.30956  -0.29656  -0.29502
 Alpha  occ. eigenvalues --   -0.28430  -0.25867  -0.23575
 Alpha virt. eigenvalues --   -0.06116  -0.02190  -0.01968  -0.00063   0.00851
 Alpha virt. eigenvalues --    0.01318   0.01398   0.01709   0.02583   0.03073
 Alpha virt. eigenvalues --    0.03497   0.03996   0.04425   0.04718   0.05317

 Mulliken atomic charges:
              1
     1  O   -0.568852
     2  C   -0.283349
     3  C    0.131041
     4  C    0.723122
     5  N   -0.408502
     6  C    0.158102
     7  C    0.108785
     8  O   -0.488209
     9  C   -0.302300
    10  C    0.394215
    11  O   -0.411046
    12  O   -0.504033
    13  C    0.409118
    14  C   -0.591006
    15  O   -0.499866
    16  C   -0.967831
    17  C    1.130951
    18  Cl  -0.076248
    19  C   -0.597958
    20  C   -0.077582
    21  H    0.396128
    22  H    0.128537
    23  H    0.142097
    24  H    0.305366
    25  H    0.174575
    26  H    0.179948
    27  H    0.336176
    28  H    0.128190
    29  H    0.157335
    30  H    0.153049
    31  H    0.163633
    32  H    0.170388
    33  H    0.150936
    34  H    0.135090
 Sum of Mulliken atomic charges =   0.00000

 Dipole moment (field-independent basis, Debye):
    X=              0.5052    Y=             -1.9097    Z=             -1.6490  Tot=              2.5732
 Quadrupole moment (field-independent basis, Debye-Ang):
   XX=           -135.3567   YY=           -128.1032   ZZ=           -120.3879
   XY=              4.2912   XZ=            -12.6493   YZ=              1.4093

 Normal termination of Gaussian 09 at Tue Mar 26 03:00:36 2019.
