 Gaussian 09, Revision B.01,
 Gaussian 09:  EM64L-G09RevB.01 12-Aug-2010

 ----------------------------------------------------------------------
 # b3lyp/6-311+G(2d,p) nmr guess=read geom=check integral(ultrafinegrid
 ) scrf=(iefpcm,read,solvent=methanol)
 ----------------------------------------------------------------------

 olvation
 ----------------------------------------------------------------------
 Redundant internal coordinates taken from checkpoint file:
 1b-conf-3.chk
 Charge =  0 Multiplicity = 1

                         Standard orientation:
 ---------------------------------------------------------------------
 Center     Atomic      Atomic             Coordinates (Angstroms)
 Number     Number       Type             X           Y           Z
 ---------------------------------------------------------------------
      1          8           0        2.020309    2.861567   -0.283722
      2          6           0        2.563333    1.626550   -0.232341
      3          6           0        1.829980    0.426795   -0.163504
      4          6           0        0.359521    0.378704   -0.132013
      5          7           0       -0.358015   -0.656555    0.057852
      6          6           0       -1.752049   -0.219231   -0.115836
      7          6           0       -2.682989   -1.043123    0.774913
      8          8           0       -2.353984   -0.949728    2.144052
      9          6           0       -4.156087   -0.638003    0.647460
     10          6           0       -4.608791   -0.734206   -0.787636
     11          8           0       -4.664512    0.460751   -1.388077
     12          8           0       -4.858913   -1.773515   -1.358740
     13          6           0       -1.684756    1.314477    0.056609
     14          6           0       -1.857291    1.894535    1.450344
     15          8           0       -0.297388    1.556605   -0.340327
     16          6           0        2.515264   -0.797742   -0.110603
     17          6           0        3.895314   -0.823187   -0.122330
     18         17           0        4.733586   -2.356214   -0.053196
     19          6           0        4.632789    0.361744   -0.190869
     20          6           0        3.964648    1.572429   -0.245665
     21          1           0        1.048394    2.814118   -0.287536
     22          1           0       -2.030190   -0.438535   -1.159712
     23          1           0       -2.584996   -2.084777    0.434015
     24          1           0       -1.443065   -1.271827    2.260880
     25          1           0       -4.309336    0.375682    1.022235
     26          1           0       -4.752228   -1.332657    1.243805
     27          1           0       -4.930792    0.338334   -2.324747
     28          1           0       -2.313949    1.828962   -0.672332
     29          1           0       -1.176178    1.416361    2.157565
     30          1           0       -1.645875    2.966397    1.414246
     31          1           0       -2.875042    1.753176    1.817578
     32          1           0        1.939281   -1.716776   -0.061514
     33          1           0        5.718468    0.331132   -0.202504
     34          1           0        4.513234    2.508030   -0.299285
 ---------------------------------------------------------------------

 SCF Done:  E(RB3LYP) =  -1395.24513695     A.U. after   13 cycles

  1  O    Isotropic =   200.0438   Anisotropy =    93.8134

  2  C    Isotropic =    18.5464   Anisotropy =   143.7807

  3  C    Isotropic =    64.4414   Anisotropy =   136.3466

  4  C    Isotropic =    10.5088   Anisotropy =    77.5502

  5  N    Isotropic =    17.7838   Anisotropy =   236.6515

  6  C    Isotropic =   108.4299   Anisotropy =    41.8444

  7  C    Isotropic =   107.2949   Anisotropy =    40.8868

  8  O    Isotropic =   282.6201   Anisotropy =    64.3253

  9  C    Isotropic =   141.5153   Anisotropy =    34.9859

 10  C    Isotropic =     0.7672   Anisotropy =   110.7740

 11  O    Isotropic =   106.9311   Anisotropy =   187.2445

 12  O    Isotropic =   -65.8240   Anisotropy =   495.8135

 13  C    Isotropic =    96.8514   Anisotropy =    80.7761

 14  C    Isotropic =   164.7625   Anisotropy =    16.7946

 15  O    Isotropic =   114.4742   Anisotropy =   126.5455

 16  C    Isotropic =    46.8441   Anisotropy =   154.6633

 17  C    Isotropic =    46.7677   Anisotropy =   100.8847

 18  Cl   Isotropic =   708.6951   Anisotropy =   493.2369

 19  C    Isotropic =    42.3243   Anisotropy =   162.6672

 20  C    Isotropic =    58.1227   Anisotropy =   147.1129

 21  H    Isotropic =    23.3595   Anisotropy =    21.0016

 22  H    Isotropic =    27.5718   Anisotropy =     6.0744

 23  H    Isotropic =    26.8744   Anisotropy =     5.9282

 24  H    Isotropic =    29.5482   Anisotropy =    16.5733

 25  H    Isotropic =    28.9730   Anisotropy =     2.3794

 26  H    Isotropic =    28.9635   Anisotropy =     6.9549

 27  H    Isotropic =    24.7603   Anisotropy =    11.6811

 28  H    Isotropic =    26.2862   Anisotropy =     4.7053

 29  H    Isotropic =    30.2268   Anisotropy =     3.8167

 30  H    Isotropic =    30.5624   Anisotropy =     9.3185

 31  H    Isotropic =    30.4458   Anisotropy =     7.8032

 32  H    Isotropic =    23.3270   Anisotropy =    12.2820

 33  H    Isotropic =    24.0589   Anisotropy =     7.1400

 34  H    Isotropic =    24.5247   Anisotropy =     5.6971

 The electronic state is 1-A.
 Alpha  occ. eigenvalues -- -101.55991 -19.18442 -19.17790 -19.16265 -19.13458
 Alpha  occ. eigenvalues --  -19.12937 -14.30795 -10.32156 -10.28217 -10.25915
 Alpha  occ. eigenvalues --  -10.24029 -10.23941 -10.23860 -10.21286 -10.20735
 Alpha  occ. eigenvalues --  -10.19720 -10.19714 -10.18855 -10.18678 -10.16176
 Alpha  occ. eigenvalues --   -9.47442  -7.23878  -7.22938  -7.22910  -1.12535
 Alpha  occ. eigenvalues --   -1.11183  -1.07673  -1.04118  -1.03570  -0.92419
 Alpha  occ. eigenvalues --   -0.90160  -0.85083  -0.82000  -0.79222  -0.76893
 Alpha  occ. eigenvalues --   -0.74224  -0.71556  -0.67944  -0.65008  -0.62879
 Alpha  occ. eigenvalues --   -0.61878  -0.59342  -0.58890  -0.56009  -0.53599
 Alpha  occ. eigenvalues --   -0.52053  -0.51268  -0.50930  -0.49973  -0.48690
 Alpha  occ. eigenvalues --   -0.47996  -0.47807  -0.46258  -0.45322  -0.44890
 Alpha  occ. eigenvalues --   -0.43866  -0.42740  -0.42279  -0.41032  -0.40895
 Alpha  occ. eigenvalues --   -0.40422  -0.39420  -0.39118  -0.39016  -0.38610
 Alpha  occ. eigenvalues --   -0.37395  -0.36787  -0.35882  -0.34498  -0.34156
 Alpha  occ. eigenvalues --   -0.32667  -0.32403  -0.30563  -0.30035  -0.29023
 Alpha  occ. eigenvalues --   -0.28442  -0.25946  -0.23597
 Alpha virt. eigenvalues --   -0.06229  -0.02177  -0.01801  -0.00249   0.00757
 Alpha virt. eigenvalues --    0.00957   0.01615   0.01821   0.02671   0.02982
 Alpha virt. eigenvalues --    0.03381   0.04092   0.04367   0.04816   0.04834

 Mulliken atomic charges:
              1
     1  O   -0.569899
     2  C   -0.314501
     3  C    0.262648
     4  C    0.718130
     5  N   -0.422499
     6  C    0.546711
     7  C    0.069349
     8  O   -0.519462
     9  C   -0.321298
    10  C    0.418722
    11  O   -0.403752
    12  O   -0.517839
    13  C   -0.091091
    14  C   -0.518393
    15  O   -0.545768
    16  C   -0.771181
    17  C    1.063982
    18  Cl  -0.076257
    19  C   -0.628965
    20  C   -0.082259
    21  H    0.388228
    22  H    0.119274
    23  H    0.137021
    24  H    0.318199
    25  H    0.161536
    26  H    0.173350
    27  H    0.354185
    28  H    0.139458
    29  H    0.158381
    30  H    0.152291
    31  H    0.147528
    32  H    0.168125
    33  H    0.150879
    34  H    0.135169
 Sum of Mulliken atomic charges =   0.00000

 Dipole moment (field-independent basis, Debye):
    X=             -1.9376    Y=              4.6004    Z=             -0.5045  Tot=              5.0172
 Quadrupole moment (field-independent basis, Debye-Ang):
   XX=           -123.5237   YY=           -133.7780   ZZ=           -124.6861
   XY=             -9.9865   XZ=              3.5834   YZ=             -4.4618

 Normal termination of Gaussian 09 at Tue Mar 26 03:00:11 2019.
