 Gaussian 09, Revision B.01,
 Gaussian 09:  EM64L-G09RevB.01 12-Aug-2010

 ----------------------------------------------------------------------
 # b3lyp/6-311+G(2d,p) nmr guess=read geom=check integral(ultrafinegrid
 ) scrf=(iefpcm,read,solvent=methanol)
 ----------------------------------------------------------------------

 olvation
 ----------------------------------------------------------------------
 Redundant internal coordinates taken from checkpoint file:
 1b-conf-4.chk
 Charge =  0 Multiplicity = 1

                         Standard orientation:
 ---------------------------------------------------------------------
 Center     Atomic      Atomic             Coordinates (Angstroms)
 Number     Number       Type             X           Y           Z
 ---------------------------------------------------------------------
      1          8           0        0.995270   -2.222356   -1.586250
      2          6           0        1.855111   -1.447767   -0.906398
      3          6           0        1.551964   -0.122831   -0.529569
      4          6           0        0.247534    0.438122   -0.874115
      5          7           0       -0.652586   -0.177127   -1.552935
      6          6           0       -1.854412    0.672211   -1.531681
      7          6           0       -2.923145    0.036470   -0.627878
      8          8           0       -3.524243   -1.068916   -1.280077
      9          6           0       -2.382852   -0.392402    0.735339
     10          6           0       -3.497575   -0.685748    1.710401
     11          8           0       -3.107004   -1.520912    2.679071
     12          8           0       -4.610020   -0.208097    1.661083
     13          6           0       -1.292687    2.041261   -1.090822
     14          6           0       -2.128227    2.923646   -0.189989
     15          8           0       -0.050912    1.672347   -0.422680
     16          6           0        2.488604    0.641212    0.180324
     17          6           0        3.710694    0.084656    0.508184
     18         17           0        4.884231    1.032835    1.393130
     19          6           0        4.024452   -1.227522    0.143073
     20          6           0        3.101210   -1.985823   -0.559264
     21          1           0        0.166297   -1.704829   -1.758891
     22          1           0       -2.286459    0.741599   -2.534541
     23          1           0       -3.733284    0.759516   -0.486142
     24          1           0       -2.831315   -1.714289   -1.506781
     25          1           0       -1.754677    0.382849    1.194093
     26          1           0       -1.750968   -1.280676    0.634510
     27          1           0       -3.846872   -1.647407    3.309933
     28          1           0       -0.995103    2.599335   -1.987021
     29          1           0       -1.571349    3.829185    0.060421
     30          1           0       -3.040446    3.219850   -0.715628
     31          1           0       -2.409391    2.422570    0.739189
     32          1           0        2.245454    1.660650    0.464299
     33          1           0        4.989387   -1.648861    0.410186
     34          1           0        3.326146   -3.007237   -0.851101
 ---------------------------------------------------------------------

 SCF Done:  E(RB3LYP) =  -1395.25597326     A.U. after   13 cycles

  1  O    Isotropic =   185.3892   Anisotropy =   136.4298

  2  C    Isotropic =    16.2212   Anisotropy =   151.7483

  3  C    Isotropic =    66.3575   Anisotropy =   141.8296

  4  C    Isotropic =     8.1746   Anisotropy =    89.1367

  5  N    Isotropic =    23.2273   Anisotropy =   250.9165

  6  C    Isotropic =   105.3615   Anisotropy =    25.6281

  7  C    Isotropic =   109.2218   Anisotropy =    43.0516

  8  O    Isotropic =   269.5877   Anisotropy =    43.5151

  9  C    Isotropic =   142.3707   Anisotropy =    34.3017

 10  C    Isotropic =     0.2997   Anisotropy =   106.4786

 11  O    Isotropic =   113.4782   Anisotropy =   191.3849

 12  O    Isotropic =   -55.7765   Anisotropy =   505.6250

 13  C    Isotropic =    99.1513   Anisotropy =    72.6022

 14  C    Isotropic =   169.0721   Anisotropy =    17.5150

 15  O    Isotropic =   123.5353   Anisotropy =   142.4755

 16  C    Isotropic =    48.9110   Anisotropy =   156.5371

 17  C    Isotropic =    47.9983   Anisotropy =    99.8862

 18  Cl   Isotropic =   709.1986   Anisotropy =   495.9503

 19  C    Isotropic =    42.3889   Anisotropy =   163.0132

 20  C    Isotropic =    59.4989   Anisotropy =   147.3197

 21  H    Isotropic =    19.8159   Anisotropy =    25.1691

 22  H    Isotropic =    27.2760   Anisotropy =     4.7758

 23  H    Isotropic =    27.3666   Anisotropy =     3.7803

 24  H    Isotropic =    29.9392   Anisotropy =    14.8026

 25  H    Isotropic =    29.1296   Anisotropy =     4.7083

 26  H    Isotropic =    29.4276   Anisotropy =     4.9089

 27  H    Isotropic =    24.8758   Anisotropy =    12.8386

 28  H    Isotropic =    26.8010   Anisotropy =     6.4585

 29  H    Isotropic =    30.0705   Anisotropy =     9.9347

 30  H    Isotropic =    30.3465   Anisotropy =     9.6124

 31  H    Isotropic =    30.5433   Anisotropy =     5.0935

 32  H    Isotropic =    23.7142   Anisotropy =    12.4064

 33  H    Isotropic =    24.0070   Anisotropy =     7.1986

 34  H    Isotropic =    24.4922   Anisotropy =     5.5604

 The electronic state is 1-A.
 Alpha  occ. eigenvalues -- -101.55979 -19.18167 -19.17531 -19.15537 -19.13568
 Alpha  occ. eigenvalues --  -19.12700 -14.31595 -10.31902 -10.28591 -10.25654
 Alpha  occ. eigenvalues --  -10.24114 -10.23827 -10.23406 -10.21442 -10.20505
 Alpha  occ. eigenvalues --  -10.19881 -10.19731 -10.18743 -10.18617 -10.16760
 Alpha  occ. eigenvalues --   -9.47429  -7.23865  -7.22924  -7.22899  -1.12341
 Alpha  occ. eigenvalues --   -1.11331  -1.07407  -1.04090  -1.03285  -0.92722
 Alpha  occ. eigenvalues --   -0.90213  -0.85099  -0.82034  -0.78731  -0.77108
 Alpha  occ. eigenvalues --   -0.74126  -0.71849  -0.68118  -0.64591  -0.63340
 Alpha  occ. eigenvalues --   -0.61163  -0.60067  -0.59019  -0.55009  -0.53679
 Alpha  occ. eigenvalues --   -0.52903  -0.51305  -0.50643  -0.49791  -0.48432
 Alpha  occ. eigenvalues --   -0.47969  -0.47347  -0.46113  -0.45671  -0.44379
 Alpha  occ. eigenvalues --   -0.44002  -0.43234  -0.42128  -0.41595  -0.40830
 Alpha  occ. eigenvalues --   -0.40177  -0.39842  -0.39295  -0.38932  -0.38438
 Alpha  occ. eigenvalues --   -0.37310  -0.36838  -0.36322  -0.34316  -0.33954
 Alpha  occ. eigenvalues --   -0.32436  -0.32405  -0.30487  -0.30229  -0.29890
 Alpha  occ. eigenvalues --   -0.28327  -0.26254  -0.23474
 Alpha virt. eigenvalues --   -0.06212  -0.02126  -0.01136  -0.00157   0.00842
 Alpha virt. eigenvalues --    0.01017   0.01468   0.01683   0.02538   0.03094
 Alpha virt. eigenvalues --    0.03411   0.03490   0.04648   0.04845   0.05563

 Mulliken atomic charges:
              1
     1  O   -0.616056
     2  C   -0.034548
     3  C    0.084203
     4  C    0.554645
     5  N   -0.513893
     6  C    0.356767
     7  C    0.020196
     8  O   -0.495956
     9  C   -0.356601
    10  C    0.626549
    11  O   -0.436417
    12  O   -0.563769
    13  C    0.125023
    14  C   -0.519132
    15  O   -0.417120
    16  C   -0.747172
    17  C    1.016901
    18  Cl  -0.082972
    19  C   -0.620838
    20  C   -0.170286
    21  H    0.451296
    22  H    0.128057
    23  H    0.142065
    24  H    0.297303
    25  H    0.185328
    26  H    0.184145
    27  H    0.351547
    28  H    0.128906
    29  H    0.153026
    30  H    0.164589
    31  H    0.153014
    32  H    0.165751
    33  H    0.150729
    34  H    0.134721
 Sum of Mulliken atomic charges =   0.00000

 Dipole moment (field-independent basis, Debye):
    X=              0.6829    Y=              1.7560    Z=              0.1649  Tot=              1.8913
 Quadrupole moment (field-independent basis, Debye-Ang):
   XX=           -151.2182   YY=           -116.1237   ZZ=           -120.7485
   XY=             -9.4304   XZ=             -4.0278   YZ=             -9.5514

 Normal termination of Gaussian 09 at Tue Mar 26 03:03:20 2019.
