 Gaussian 09, Revision B.01,
 Gaussian 09:  EM64L-G09RevB.01 12-Aug-2010

 ----------------------------------------------------------------------
 # b3lyp/6-311+G(2d,p) nmr guess=read geom=check integral(ultrafinegrid
 ) scrf=(iefpcm,read,solvent=methanol)
 ----------------------------------------------------------------------

 solvation
 ----------------------------------------------------------------------
 Redundant internal coordinates taken from checkpoint file:
 1b-conf-15.chk
 Charge =  0 Multiplicity = 1

                         Standard orientation:
 ---------------------------------------------------------------------
 Center     Atomic      Atomic             Coordinates (Angstroms)
 Number     Number       Type             X           Y           Z
 ---------------------------------------------------------------------
      1          8           0       -1.769589    2.716590   -1.154854
      2          6           0       -2.275980    1.538608   -0.732487
      3          6           0       -1.598143    0.616775    0.087617
      4          6           0       -0.232898    0.834912    0.591399
      5          7           0        0.386519    0.105243    1.433482
      6          6           0        1.756008    0.637853    1.517486
      7          6           0        2.734978   -0.331942    0.833062
      8          8           0        2.945265   -1.473463    1.643795
      9          6           0        2.279738   -0.768042   -0.566469
     10          6           0        3.331921   -1.616731   -1.232425
     11          8           0        4.499838   -0.971025   -1.344449
     12          8           0        3.166499   -2.750177   -1.627004
     13          6           0        1.633610    2.048091    0.904977
     14          6           0        2.775590    2.608508    0.086482
     15          8           0        0.439927    1.908668    0.082589
     16          6           0       -2.239615   -0.575320    0.462382
     17          6           0       -3.523588   -0.838520    0.030312
     18         17           0       -4.309400   -2.327321    0.502314
     19          6           0       -4.205683    0.070058   -0.783668
     20          6           0       -3.580492    1.246572   -1.156965
     21          1           0       -0.862077    2.844971   -0.827714
     22          1           0        2.068269    0.705311    2.564396
     23          1           0        3.712748    0.156857    0.764150
     24          1           0        2.088765   -1.912190    1.795399
     25          1           0        2.082637    0.101105   -1.204590
     26          1           0        1.363451   -1.359021   -0.498035
     27          1           0        5.152405   -1.560981   -1.776773
     28          1           0        1.367078    2.752903    1.702192
     29          1           0        3.043450    1.964725   -0.753973
     30          1           0        2.505103    3.592306   -0.303646
     31          1           0        3.654072    2.728308    0.726925
     32          1           0       -1.706084   -1.279226    1.093841
     33          1           0       -5.215796   -0.147211   -1.118984
     34          1           0       -4.088051    1.970235   -1.787746
 ---------------------------------------------------------------------

 SCF Done:  E(RB3LYP) =  -1395.24823683     A.U. after   13 cycles

  1  O    Isotropic =   200.6701   Anisotropy =    93.0127

  2  C    Isotropic =    18.5736   Anisotropy =   144.2039

  3  C    Isotropic =    65.1949   Anisotropy =   136.2174

  4  C    Isotropic =    10.3194   Anisotropy =    70.2711

  5  N    Isotropic =    15.9130   Anisotropy =   274.9682

  6  C    Isotropic =   106.5312   Anisotropy =    23.8975

  7  C    Isotropic =   106.2457   Anisotropy =    37.7500

  8  O    Isotropic =   270.1864   Anisotropy =    37.9305

  9  C    Isotropic =   139.6009   Anisotropy =    24.0051

 10  C    Isotropic =    -0.1672   Anisotropy =   110.6390

 11  O    Isotropic =   117.9599   Anisotropy =   184.8211

 12  O    Isotropic =   -73.1004   Anisotropy =   478.0440

 13  C    Isotropic =    97.3849   Anisotropy =    74.9680

 14  C    Isotropic =   168.9890   Anisotropy =    18.0365

 15  O    Isotropic =   122.0879   Anisotropy =   156.9079

 16  C    Isotropic =    47.0369   Anisotropy =   155.2654

 17  C    Isotropic =    46.7226   Anisotropy =   101.2696

 18  Cl   Isotropic =   709.2638   Anisotropy =   492.7502

 19  C    Isotropic =    42.0878   Anisotropy =   162.9289

 20  C    Isotropic =    58.1222   Anisotropy =   147.3832

 21  H    Isotropic =    23.5247   Anisotropy =    20.7610

 22  H    Isotropic =    27.4269   Anisotropy =     4.6407

 23  H    Isotropic =    27.4026   Anisotropy =     3.7474

 24  H    Isotropic =    29.7283   Anisotropy =    14.7165

 25  H    Isotropic =    28.9601   Anisotropy =     4.0898

 26  H    Isotropic =    29.6232   Anisotropy =     5.5037

 27  H    Isotropic =    24.8122   Anisotropy =    12.4879

 28  H    Isotropic =    26.6923   Anisotropy =     6.1681

 29  H    Isotropic =    30.3184   Anisotropy =     5.4434

 30  H    Isotropic =    30.0263   Anisotropy =     9.8113

 31  H    Isotropic =    30.2936   Anisotropy =     9.5442

 32  H    Isotropic =    23.2975   Anisotropy =    12.0991

 33  H    Isotropic =    24.0355   Anisotropy =     7.1626

 34  H    Isotropic =    24.5405   Anisotropy =     5.6725

 The electronic state is 1-A.
 Alpha  occ. eigenvalues -- -101.55992 -19.18073 -19.17876 -19.16305 -19.13642
 Alpha  occ. eigenvalues --  -19.12716 -14.30817 -10.31818 -10.28325 -10.25945
 Alpha  occ. eigenvalues --  -10.24160 -10.23867 -10.23673 -10.21232 -10.20753
 Alpha  occ. eigenvalues --  -10.19735 -10.19726 -10.18691 -10.18583 -10.16824
 Alpha  occ. eigenvalues --   -9.47444  -7.23880  -7.22939  -7.22912  -1.12262
 Alpha  occ. eigenvalues --   -1.11331  -1.07708  -1.04115  -1.03298  -0.92535
 Alpha  occ. eigenvalues --   -0.90177  -0.85117  -0.81967  -0.78721  -0.77236
 Alpha  occ. eigenvalues --   -0.74272  -0.71559  -0.68172  -0.64560  -0.62334
 Alpha  occ. eigenvalues --   -0.62178  -0.60545  -0.59296  -0.55896  -0.53762
 Alpha  occ. eigenvalues --   -0.52111  -0.50999  -0.50684  -0.49886  -0.48538
 Alpha  occ. eigenvalues --   -0.47837  -0.47225  -0.45977  -0.45549  -0.44698
 Alpha  occ. eigenvalues --   -0.43523  -0.43330  -0.42274  -0.41423  -0.40670
 Alpha  occ. eigenvalues --   -0.40595  -0.39858  -0.39294  -0.39041  -0.38401
 Alpha  occ. eigenvalues --   -0.37699  -0.37052  -0.35616  -0.34603  -0.33667
 Alpha  occ. eigenvalues --   -0.32641  -0.32405  -0.30629  -0.30065  -0.29638
 Alpha  occ. eigenvalues --   -0.28371  -0.25804  -0.23614
 Alpha virt. eigenvalues --   -0.06273  -0.02171  -0.01264  -0.00128   0.00825
 Alpha virt. eigenvalues --    0.00954   0.01240   0.01928   0.02610   0.02903
 Alpha virt. eigenvalues --    0.03493   0.03744   0.04512   0.04613   0.05512

 Mulliken atomic charges:
              1
     1  O   -0.575128
     2  C   -0.183496
     3  C    0.128792
     4  C    0.556172
     5  N   -0.404730
     6  C    0.226949
     7  C    0.051147
     8  O   -0.495222
     9  C   -0.390617
    10  C    0.593674
    11  O   -0.413303
    12  O   -0.551243
    13  C    0.229073
    14  C   -0.509903
    15  O   -0.445063
    16  C   -0.861596
    17  C    0.992448
    18  Cl  -0.073190
    19  C   -0.598739
    20  C   -0.024607
    21  H    0.390119
    22  H    0.126374
    23  H    0.148703
    24  H    0.303338
    25  H    0.185506
    26  H    0.182645
    27  H    0.359454
    28  H    0.131501
    29  H    0.149371
    30  H    0.153745
    31  H    0.164652
    32  H    0.167177
    33  H    0.151230
    34  H    0.134765
 Sum of Mulliken atomic charges =   0.00000

 Dipole moment (field-independent basis, Debye):
    X=              2.4075    Y=              6.5667    Z=             -0.3077  Tot=              7.0009
 Quadrupole moment (field-independent basis, Debye-Ang):
   XX=           -115.8983   YY=           -133.1855   ZZ=           -127.4497
   XY=             11.6104   XZ=              0.7511   YZ=              1.3643

 Normal termination of Gaussian 09 at Tue Mar 26 02:59:30 2019.
