 Gaussian 09, Revision B.01,
 Gaussian 09:  EM64L-G09RevB.01 12-Aug-2010

 ----------------------------------------------------------------------
 # b3lyp/6-311+G(2d,p) nmr guess=read geom=check integral(ultrafinegrid
 ) scrf=(iefpcm,read,solvent=methanol)
 ----------------------------------------------------------------------

 olvation
 ----------------------------------------------------------------------
 Redundant internal coordinates taken from checkpoint file:
 1b-conf-2.chk
 Charge =  0 Multiplicity = 1

                         Standard orientation:
 ---------------------------------------------------------------------
 Center     Atomic      Atomic             Coordinates (Angstroms)
 Number     Number       Type             X           Y           Z
 ---------------------------------------------------------------------
      1          8           0        2.156049    2.835747   -0.453886
      2          6           0        2.663284    1.591112   -0.325907
      3          6           0        1.894476    0.418176   -0.205242
      4          6           0        0.422702    0.414501   -0.193569
      5          7           0       -0.327626   -0.583616    0.053740
      6          6           0       -1.708096   -0.119013   -0.160172
      7          6           0       -2.667151   -0.844998    0.783412
      8          8           0       -2.339960   -0.649203    2.146096
      9          6           0       -4.119450   -0.416941    0.612449
     10          6           0       -4.726574   -0.866723   -0.692590
     11          8           0       -5.938655   -0.335229   -0.881056
     12          8           0       -4.210161   -1.628760   -1.481607
     13          6           0       -1.593352    1.421520   -0.091547
     14          6           0       -1.764875    2.104997    1.254998
     15          8           0       -0.196186    1.596132   -0.487529
     16          6           0        2.542956   -0.820328   -0.073403
     17          6           0        3.921775   -0.884745   -0.058502
     18         17           0        4.715087   -2.434325    0.106019
     19          6           0        4.694299    0.273573   -0.176812
     20          6           0        4.062458    1.497642   -0.309663
     21          1           0        1.183465    2.813793   -0.477713
     22          1           0       -1.994942   -0.405922   -1.182146
     23          1           0       -2.591675   -1.911715    0.529320
     24          1           0       -1.434455   -0.974336    2.289505
     25          1           0       -4.250110    0.666242    0.702314
     26          1           0       -4.714521   -0.864046    1.417758
     27          1           0       -6.307350   -0.672269   -1.725045
     28          1           0       -2.195973    1.906441   -0.863099
     29          1           0       -1.095347    1.669228    1.999498
     30          1           0       -1.536389    3.168101    1.142745
     31          1           0       -2.786381    2.004695    1.626054
     32          1           0        1.939939   -1.718861    0.015023
     33          1           0        5.778673    0.211997   -0.166369
     34          1           0        4.638570    2.413358   -0.403212
 ---------------------------------------------------------------------

 SCF Done:  E(RB3LYP) =  -1395.24690681     A.U. after   13 cycles

  1  O    Isotropic =   200.2679   Anisotropy =    93.4098

  2  C    Isotropic =    18.6588   Anisotropy =   143.7255

  3  C    Isotropic =    64.2952   Anisotropy =   136.7351

  4  C    Isotropic =    10.8675   Anisotropy =    76.4883

  5  N    Isotropic =    16.3105   Anisotropy =   238.4465

  6  C    Isotropic =   109.8192   Anisotropy =    43.9636

  7  C    Isotropic =   109.8700   Anisotropy =    46.7841

  8  O    Isotropic =   284.7637   Anisotropy =    65.0039

  9  C    Isotropic =   144.5167   Anisotropy =    44.4546

 10  C    Isotropic =     0.7269   Anisotropy =   109.1695

 11  O    Isotropic =   116.9143   Anisotropy =   195.6435

 12  O    Isotropic =   -62.9745   Anisotropy =   507.3373

 13  C    Isotropic =    96.9554   Anisotropy =    80.3656

 14  C    Isotropic =   164.4075   Anisotropy =    17.0376

 15  O    Isotropic =   115.4502   Anisotropy =   128.0982

 16  C    Isotropic =    46.9155   Anisotropy =   154.5138

 17  C    Isotropic =    46.7821   Anisotropy =   100.8891

 18  Cl   Isotropic =   709.0116   Anisotropy =   493.0252

 19  C    Isotropic =    42.4020   Anisotropy =   162.4347

 20  C    Isotropic =    58.1978   Anisotropy =   147.1365

 21  H    Isotropic =    23.3567   Anisotropy =    21.0202

 22  H    Isotropic =    27.2526   Anisotropy =     6.8710

 23  H    Isotropic =    26.8489   Anisotropy =     5.9743

 24  H    Isotropic =    29.7042   Anisotropy =    16.4465

 25  H    Isotropic =    28.8303   Anisotropy =     4.6141

 26  H    Isotropic =    28.7786   Anisotropy =     6.6944

 27  H    Isotropic =    24.8366   Anisotropy =    12.2638

 28  H    Isotropic =    26.5769   Anisotropy =     3.8691

 29  H    Isotropic =    30.2554   Anisotropy =     3.6850

 30  H    Isotropic =    30.5971   Anisotropy =     9.3510

 31  H    Isotropic =    30.5309   Anisotropy =     7.8049

 32  H    Isotropic =    23.3232   Anisotropy =    12.2053

 33  H    Isotropic =    24.0621   Anisotropy =     7.1491

 34  H    Isotropic =    24.5341   Anisotropy =     5.6768

 The electronic state is 1-A.
 Alpha  occ. eigenvalues -- -101.55973 -19.18237 -19.17689 -19.16217 -19.13208
 Alpha  occ. eigenvalues --  -19.12871 -14.30677 -10.32147 -10.28086 -10.25865
 Alpha  occ. eigenvalues --  -10.23961 -10.23830 -10.23331 -10.20914 -10.20687
 Alpha  occ. eigenvalues --  -10.19684 -10.19678 -10.18945 -10.18649 -10.16120
 Alpha  occ. eigenvalues --   -9.47425  -7.23860  -7.22921  -7.22893  -1.12480
 Alpha  occ. eigenvalues --   -1.11056  -1.07623  -1.03846  -1.03476  -0.92285
 Alpha  occ. eigenvalues --   -0.90123  -0.85029  -0.81774  -0.79106  -0.76849
 Alpha  occ. eigenvalues --   -0.74188  -0.71650  -0.68072  -0.64828  -0.62731
 Alpha  occ. eigenvalues --   -0.61636  -0.59204  -0.58525  -0.55839  -0.53444
 Alpha  occ. eigenvalues --   -0.52010  -0.51087  -0.50723  -0.50313  -0.48939
 Alpha  occ. eigenvalues --   -0.47896  -0.47224  -0.46237  -0.45723  -0.44655
 Alpha  occ. eigenvalues --   -0.43858  -0.42990  -0.41978  -0.40937  -0.40705
 Alpha  occ. eigenvalues --   -0.40289  -0.39289  -0.39040  -0.38804  -0.38510
 Alpha  occ. eigenvalues --   -0.37256  -0.36591  -0.35789  -0.34551  -0.34097
 Alpha  occ. eigenvalues --   -0.32639  -0.32386  -0.30419  -0.30125  -0.28940
 Alpha  occ. eigenvalues --   -0.28186  -0.25812  -0.23546
 Alpha virt. eigenvalues --   -0.06149  -0.02127  -0.01305  -0.00223   0.00712
 Alpha virt. eigenvalues --    0.00939   0.01621   0.01848   0.02568   0.03076
 Alpha virt. eigenvalues --    0.03314   0.03786   0.04506   0.04841   0.05099

 Mulliken atomic charges:
              1
     1  O   -0.570938
     2  C   -0.299557
     3  C    0.239924
     4  C    0.750317
     5  N   -0.416099
     6  C    0.295082
     7  C    0.161408
     8  O   -0.520985
     9  C   -0.322944
    10  C    0.512396
    11  O   -0.421381
    12  O   -0.552541
    13  C    0.006489
    14  C   -0.490169
    15  O   -0.545280
    16  C   -0.770570
    17  C    1.051627
    18  Cl  -0.076766
    19  C   -0.633702
    20  C   -0.080047
    21  H    0.386626
    22  H    0.128273
    23  H    0.127062
    24  H    0.317859
    25  H    0.163978
    26  H    0.172625
    27  H    0.347070
    28  H    0.137303
    29  H    0.154752
    30  H    0.149135
    31  H    0.145113
    32  H    0.168314
    33  H    0.150666
    34  H    0.134958
 Sum of Mulliken atomic charges =   0.00000

 Dipole moment (field-independent basis, Debye):
    X=             -3.8790    Y=              3.7575    Z=             -0.1717  Tot=              5.4032
 Quadrupole moment (field-independent basis, Debye-Ang):
   XX=           -105.9327   YY=           -130.5302   ZZ=           -128.4601
   XY=             -0.8660   XZ=              5.8902   YZ=             -3.0571

 Normal termination of Gaussian 09 at Tue Mar 26 02:59:55 2019.
