 Gaussian 09, Revision B.01,
 Gaussian 09:  EM64L-G09RevB.01 12-Aug-2010

 ----------------------------------------------------------------------
 # b3lyp/6-311+G(2d,p) nmr guess=read geom=check integral(ultrafinegrid
 ) scrf=(iefpcm,read,solvent=methanol)
 ----------------------------------------------------------------------

 olvation
 ----------------------------------------------------------------------
 Redundant internal coordinates taken from checkpoint file:
 1b-conf-9.chk
 Charge =  0 Multiplicity = 1

                         Standard orientation:
 ---------------------------------------------------------------------
 Center     Atomic      Atomic             Coordinates (Angstroms)
 Number     Number       Type             X           Y           Z
 ---------------------------------------------------------------------
      1          8           0        0.359455   -2.260519   -0.778166
      2          6           0        1.414941   -1.482937   -0.508607
      3          6           0        1.329614   -0.084742   -0.379078
      4          6           0        0.043185    0.583923   -0.530726
      5          7           0       -1.068470    0.000478   -0.803970
      6          6           0       -2.076351    1.061103   -0.930272
      7          6           0       -3.459614    0.664049   -0.384805
      8          8           0       -4.174963   -0.092086   -1.348110
      9          6           0       -3.460549   -0.040968    0.982459
     10          6           0       -2.671533   -1.323879    1.007745
     11          8           0       -1.783334   -1.373188    1.998795
     12          8           0       -2.873808   -2.268348    0.274001
     13          6           0       -1.362909    2.306526   -0.333719
     14          6           0       -1.674891    2.701040    1.096103
     15          8           0        0.043176    1.921159   -0.384144
     16          6           0        2.475059    0.665826   -0.098730
     17          6           0        3.686791    0.025344    0.053648
     18         17           0        5.121892    0.963970    0.403919
     19          6           0        3.786072   -1.360270   -0.066882
     20          6           0        2.655318   -2.105258   -0.347245
     21          1           0       -0.432013   -1.679926   -0.911867
     22          1           0       -2.244695    1.232892   -2.001678
     23          1           0       -4.039414    1.587459   -0.265413
     24          1           0       -3.762301   -0.969672   -1.442969
     25          1           0       -4.500119   -0.307543    1.202802
     26          1           0       -3.105739    0.616784    1.775427
     27          1           0       -1.332501   -2.248114    1.978997
     28          1           0       -1.473507    3.163344   -1.001519
     29          1           0       -1.390868    1.906133    1.790716
     30          1           0       -1.102109    3.595618    1.352221
     31          1           0       -2.739667    2.927271    1.216032
     32          1           0        2.397136    1.745391    0.000046
     33          1           0        4.748438   -1.849641    0.057521
     34          1           0        2.709476   -3.185509   -0.447507
 ---------------------------------------------------------------------

 SCF Done:  E(RB3LYP) =  -1395.25074424     A.U. after   13 cycles

  1  O    Isotropic =   191.1138   Anisotropy =   132.6650

  2  C    Isotropic =    17.5770   Anisotropy =   150.8714

  3  C    Isotropic =    66.5156   Anisotropy =   141.6916

  4  C    Isotropic =     9.8025   Anisotropy =    88.4855

  5  N    Isotropic =    27.4759   Anisotropy =   247.6665

  6  C    Isotropic =   102.8851   Anisotropy =    30.1501

  7  C    Isotropic =   109.1509   Anisotropy =    53.4240

  8  O    Isotropic =   260.9444   Anisotropy =    39.2151

  9  C    Isotropic =   142.9407   Anisotropy =    16.0149

 10  C    Isotropic =    -1.8176   Anisotropy =   119.1259

 11  O    Isotropic =   103.2379   Anisotropy =   179.1645

 12  O    Isotropic =   -60.2265   Anisotropy =   481.8959

 13  C    Isotropic =   100.0013   Anisotropy =    78.5037

 14  C    Isotropic =   164.8782   Anisotropy =    20.6478

 15  O    Isotropic =   119.2454   Anisotropy =   112.2370

 16  C    Isotropic =    49.2882   Anisotropy =   155.4480

 17  C    Isotropic =    48.5892   Anisotropy =    98.4502

 18  Cl   Isotropic =   709.8782   Anisotropy =   499.0292

 19  C    Isotropic =    43.2637   Anisotropy =   162.0268

 20  C    Isotropic =    60.1262   Anisotropy =   146.1961

 21  H    Isotropic =    20.7795   Anisotropy =    23.0477

 22  H    Isotropic =    26.9119   Anisotropy =     5.2859

 23  H    Isotropic =    27.5081   Anisotropy =     4.6343

 24  H    Isotropic =    27.9774   Anisotropy =    14.5621

 25  H    Isotropic =    28.9726   Anisotropy =     7.4657

 26  H    Isotropic =    28.9259   Anisotropy =     3.7659

 27  H    Isotropic =    24.9381   Anisotropy =     9.8031

 28  H    Isotropic =    26.6100   Anisotropy =     5.4242

 29  H    Isotropic =    30.5962   Anisotropy =     3.9536

 30  H    Isotropic =    30.3589   Anisotropy =     9.5263

 31  H    Isotropic =    30.7214   Anisotropy =     8.2073

 32  H    Isotropic =    23.6395   Anisotropy =    12.6203

 33  H    Isotropic =    24.0707   Anisotropy =     7.1730

 34  H    Isotropic =    24.5402   Anisotropy =     5.9043

 The electronic state is 1-A.
 Alpha  occ. eigenvalues -- -101.55931 -19.18070 -19.17464 -19.15709 -19.13330
 Alpha  occ. eigenvalues --  -19.12305 -14.31395 -10.31767 -10.28361 -10.25485
 Alpha  occ. eigenvalues --  -10.24051 -10.24043 -10.23693 -10.21474 -10.20279
 Alpha  occ. eigenvalues --  -10.19692 -10.19595 -10.18624 -10.18449 -10.16503
 Alpha  occ. eigenvalues --   -9.47382  -7.23817  -7.22878  -7.22853  -1.12389
 Alpha  occ. eigenvalues --   -1.11229  -1.07672  -1.03960  -1.02904  -0.92603
 Alpha  occ. eigenvalues --   -0.90250  -0.85110  -0.81923  -0.78698  -0.76836
 Alpha  occ. eigenvalues --   -0.74122  -0.71903  -0.68207  -0.64698  -0.63507
 Alpha  occ. eigenvalues --   -0.61186  -0.59939  -0.58849  -0.55133  -0.53256
 Alpha  occ. eigenvalues --   -0.52588  -0.51433  -0.50546  -0.49823  -0.48599
 Alpha  occ. eigenvalues --   -0.47764  -0.46310  -0.46150  -0.45664  -0.44384
 Alpha  occ. eigenvalues --   -0.44017  -0.43153  -0.42289  -0.41874  -0.40811
 Alpha  occ. eigenvalues --   -0.40358  -0.39637  -0.39006  -0.38964  -0.38292
 Alpha  occ. eigenvalues --   -0.37487  -0.37304  -0.35998  -0.34223  -0.33798
 Alpha  occ. eigenvalues --   -0.32439  -0.32382  -0.30513  -0.29625  -0.29057
 Alpha  occ. eigenvalues --   -0.28494  -0.26258  -0.23407
 Alpha virt. eigenvalues --   -0.06184  -0.02025  -0.01299  -0.00026   0.00868
 Alpha virt. eigenvalues --    0.01293   0.01397   0.02262   0.02773   0.03282
 Alpha virt. eigenvalues --    0.03680   0.04107   0.04402   0.04591   0.05156

 Mulliken atomic charges:
              1
     1  O   -0.626508
     2  C    0.040778
     3  C    0.136014
     4  C    0.635353
     5  N   -0.525211
     6  C    0.565368
     7  C   -0.065919
     8  O   -0.480222
     9  C   -0.260793
    10  C    0.483335
    11  O   -0.396043
    12  O   -0.537649
    13  C   -0.130213
    14  C   -0.443662
    15  O   -0.466486
    16  C   -0.835281
    17  C    1.055801
    18  Cl  -0.087602
    19  C   -0.635251
    20  C   -0.207419
    21  H    0.465882
    22  H    0.118055
    23  H    0.141021
    24  H    0.302243
    25  H    0.179381
    26  H    0.167282
    27  H    0.352753
    28  H    0.131142
    29  H    0.158274
    30  H    0.153985
    31  H    0.159212
    32  H    0.168182
    33  H    0.150150
    34  H    0.134049
 Sum of Mulliken atomic charges =   0.00000

 Dipole moment (field-independent basis, Debye):
    X=             -1.0300    Y=              3.7182    Z=              2.6756  Tot=              4.6952
 Quadrupole moment (field-independent basis, Debye-Ang):
   XX=           -137.4563   YY=           -119.0107   ZZ=           -124.7519
   XY=            -20.6752   XZ=             -9.7088   YZ=             -4.3878

 Normal termination of Gaussian 09 at Tue Mar 26 03:07:57 2019.
