 Gaussian 09, Revision B.01,
 Gaussian 09:  EM64L-G09RevB.01 12-Aug-2010

 ----------------------------------------------------------------------
 # b3lyp/6-311+G(2d,p) nmr guess=read geom=check integral(ultrafinegrid
 ) scrf=(iefpcm,read,solvent=methanol)
 ----------------------------------------------------------------------

 solvation
 ----------------------------------------------------------------------
 Redundant internal coordinates taken from checkpoint file:
 1b-conf-11.chk
 Charge =  0 Multiplicity = 1

                         Standard orientation:
 ---------------------------------------------------------------------
 Center     Atomic      Atomic             Coordinates (Angstroms)
 Number     Number       Type             X           Y           Z
 ---------------------------------------------------------------------
      1          8           0       -0.671306    2.809577   -0.131290
      2          6           0       -1.548920    1.793328   -0.111167
      3          6           0       -1.190115    0.473441   -0.450333
      4          6           0        0.193421    0.181972   -0.813988
      5          7           0        1.117647    1.068178   -0.920759
      6          6           0        2.370456    0.340905   -1.176677
      7          6           0        3.316375    0.419586    0.047374
      8          8           0        4.150742    1.560024   -0.070168
      9          6           0        2.628313    0.485508    1.424530
     10          6           0        1.853968   -0.746499    1.822794
     11          8           0        0.550190   -0.512185    1.995226
     12          8           0        2.339895   -1.855959    1.909579
     13          6           0        1.856458   -1.039793   -1.641894
     14          6           0        2.649171   -2.284035   -1.320235
     15          8           0        0.532038   -1.102119   -1.041922
     16          6           0       -2.144064   -0.551049   -0.407864
     17          6           0       -3.441321   -0.255561   -0.031928
     18         17           0       -4.636283   -1.532882    0.024560
     19          6           0       -3.814007    1.048381    0.306279
     20          6           0       -2.871162    2.064148    0.266091
     21          1           0        0.212276    2.461587   -0.417407
     22          1           0        2.914650    0.816597   -1.998338
     23          1           0        3.995725   -0.439340    0.019315
     24          1           0        3.594460    2.354794   -0.148917
     25          1           0        1.980470    1.363652    1.468159
     26          1           0        3.429779    0.598636    2.160229
     27          1           0        0.098273   -1.355587    2.210495
     28          1           0        1.682256   -0.981676   -2.723482
     29          1           0        2.786008   -2.414885   -0.246263
     30          1           0        2.136563   -3.161288   -1.721026
     31          1           0        3.630668   -2.218881   -1.799759
     32          1           0       -1.854678   -1.564579   -0.668189
     33          1           0       -4.837962    1.262195    0.598234
     34          1           0       -3.139111    3.083829    0.525445
 ---------------------------------------------------------------------

 SCF Done:  E(RB3LYP) =  -1395.24746169     A.U. after   13 cycles

  1  O    Isotropic =   186.0931   Anisotropy =   135.2427

  2  C    Isotropic =    16.5572   Anisotropy =   151.3273

  3  C    Isotropic =    64.7122   Anisotropy =   145.6298

  4  C    Isotropic =     7.3528   Anisotropy =    91.2042

  5  N    Isotropic =    22.3175   Anisotropy =   255.3556

  6  C    Isotropic =   103.2142   Anisotropy =    23.5609

  7  C    Isotropic =   107.0240   Anisotropy =    49.3799

  8  O    Isotropic =   252.9895   Anisotropy =    47.5623

  9  C    Isotropic =   140.7909   Anisotropy =    39.8474

 10  C    Isotropic =     1.8149   Anisotropy =   112.3389

 11  O    Isotropic =    98.4323   Anisotropy =   183.3410

 12  O    Isotropic =   -69.2645   Anisotropy =   511.7105

 13  C    Isotropic =    99.1683   Anisotropy =    71.2450

 14  C    Isotropic =   168.6020   Anisotropy =    18.2429

 15  O    Isotropic =   123.7858   Anisotropy =   135.4524

 16  C    Isotropic =    48.9696   Anisotropy =   156.6865

 17  C    Isotropic =    47.9445   Anisotropy =    99.5765

 18  Cl   Isotropic =   710.2597   Anisotropy =   497.2522

 19  C    Isotropic =    42.7861   Anisotropy =   162.6451

 20  C    Isotropic =    59.3448   Anisotropy =   147.3782

 21  H    Isotropic =    19.6427   Anisotropy =    25.1110

 22  H    Isotropic =    27.2686   Anisotropy =     4.3966

 23  H    Isotropic =    27.3633   Anisotropy =     4.3533

 24  H    Isotropic =    29.6473   Anisotropy =    13.5944

 25  H    Isotropic =    29.1455   Anisotropy =     2.1828

 26  H    Isotropic =    29.1673   Anisotropy =     6.8953

 27  H    Isotropic =    25.2640   Anisotropy =     9.3979

 28  H    Isotropic =    26.8851   Anisotropy =     6.5202

 29  H    Isotropic =    30.2445   Anisotropy =     7.5888

 30  H    Isotropic =    30.2105   Anisotropy =     9.9238

 31  H    Isotropic =    30.4519   Anisotropy =     9.8710

 32  H    Isotropic =    23.7785   Anisotropy =    12.3686

 33  H    Isotropic =    24.0436   Anisotropy =     7.1398

 34  H    Isotropic =    24.5076   Anisotropy =     5.5311

 The electronic state is 1-A.
 Alpha  occ. eigenvalues -- -101.55951 -19.18279 -19.17433 -19.15412 -19.13713
 Alpha  occ. eigenvalues --  -19.12728 -14.31539 -10.31993 -10.28469 -10.25525
 Alpha  occ. eigenvalues --  -10.24024 -10.23973 -10.23783 -10.21492 -10.20329
 Alpha  occ. eigenvalues --  -10.19780 -10.19673 -10.18641 -10.18567 -10.16302
 Alpha  occ. eigenvalues --   -9.47401  -7.23836  -7.22897  -7.22872  -1.12500
 Alpha  occ. eigenvalues --   -1.11288  -1.07296  -1.04162  -1.03389  -0.92707
 Alpha  occ. eigenvalues --   -0.90151  -0.85024  -0.81784  -0.78578  -0.77093
 Alpha  occ. eigenvalues --   -0.74043  -0.71569  -0.68052  -0.64594  -0.63460
 Alpha  occ. eigenvalues --   -0.61317  -0.59959  -0.58981  -0.54937  -0.53436
 Alpha  occ. eigenvalues --   -0.53069  -0.51732  -0.50576  -0.49940  -0.48139
 Alpha  occ. eigenvalues --   -0.47737  -0.47064  -0.46032  -0.45903  -0.44817
 Alpha  occ. eigenvalues --   -0.43673  -0.43161  -0.41910  -0.41762  -0.40816
 Alpha  occ. eigenvalues --   -0.40245  -0.39809  -0.39259  -0.38859  -0.38241
 Alpha  occ. eigenvalues --   -0.36956  -0.36646  -0.35858  -0.34439  -0.33701
 Alpha  occ. eigenvalues --   -0.32386  -0.32358  -0.30959  -0.30038  -0.29536
 Alpha  occ. eigenvalues --   -0.28211  -0.26331  -0.23406
 Alpha virt. eigenvalues --   -0.06090  -0.02229  -0.01716  -0.00107   0.00855
 Alpha virt. eigenvalues --    0.01167   0.01650   0.01766   0.02461   0.03221
 Alpha virt. eigenvalues --    0.03310   0.04153   0.04358   0.04665   0.05383

 Mulliken atomic charges:
              1
     1  O   -0.623443
     2  C   -0.095643
     3  C    0.104361
     4  C    0.537119
     5  N   -0.482008
     6  C    0.222441
     7  C    0.072794
     8  O   -0.474446
     9  C   -0.258629
    10  C    0.398464
    11  O   -0.366284
    12  O   -0.509293
    13  C    0.347166
    14  C   -0.580728
    15  O   -0.416115
    16  C   -0.763692
    17  C    1.007227
    18  Cl  -0.084989
    19  C   -0.665806
    20  C   -0.137853
    21  H    0.458229
    22  H    0.134449
    23  H    0.141663
    24  H    0.303291
    25  H    0.173749
    26  H    0.177915
    27  H    0.329526
    28  H    0.125566
    29  H    0.160589
    30  H    0.150703
    31  H    0.162519
    32  H    0.166069
    33  H    0.150507
    34  H    0.134582
 Sum of Mulliken atomic charges =   0.00000

 Dipole moment (field-independent basis, Debye):
    X=              0.5864    Y=              0.3808    Z=             -1.4436  Tot=              1.6040
 Quadrupole moment (field-independent basis, Debye-Ang):
   XX=           -134.8087   YY=           -129.4082   ZZ=           -120.0963
   XY=             -2.6759   XZ=            -10.3506   YZ=              6.4498

 Normal termination of Gaussian 09 at Tue Mar 26 02:55:39 2019.
