 Gaussian 09, Revision B.01,
 Gaussian 09:  EM64L-G09RevB.01 12-Aug-2010

 ----------------------------------------------------------------------
 # b3lyp/6-311+G(2d,p) nmr guess=read geom=check integral(ultrafinegrid
 ) scrf=(iefpcm,read,solvent=methanol)
 ----------------------------------------------------------------------

 solvation
 ----------------------------------------------------------------------
 Redundant internal coordinates taken from checkpoint file:
 1b-conf-12.chk
 Charge =  0 Multiplicity = 1

                         Standard orientation:
 ---------------------------------------------------------------------
 Center     Atomic      Atomic             Coordinates (Angstroms)
 Number     Number       Type             X           Y           Z
 ---------------------------------------------------------------------
      1          8           0       -1.306959    2.633102   -0.052483
      2          6           0       -2.264058    1.692272   -0.025311
      3          6           0       -1.986501    0.317493   -0.172466
      4          6           0       -0.606983   -0.119665   -0.380832
      5          7           0        0.408547    0.664136   -0.415179
      6          6           0        1.568260   -0.171678   -0.760388
      7          6           0        2.837004    0.358626   -0.089713
      8          8           0        2.743682    0.387467    1.320700
      9          6           0        4.061843   -0.463526   -0.450469
     10          6           0        5.343157    0.236163   -0.063051
     11          8           0        6.347419   -0.629881    0.113541
     12          8           0        5.480497    1.434164    0.043028
     13          6           0        1.070956   -1.603579   -0.447916
     14          6           0        1.329575   -2.176956    0.935353
     15          8           0       -0.378051   -1.432397   -0.569741
     16          6           0       -3.026684   -0.620409   -0.125415
     17          6           0       -4.325738   -0.186652    0.062851
     18         17           0       -5.627324   -1.353880    0.122151
     19          6           0       -4.615958    1.172359    0.207240
     20          6           0       -3.589859    2.102734    0.162542
     21          1           0       -0.428174    2.192059   -0.186658
     22          1           0        1.725124   -0.082289   -1.846646
     23          1           0        2.983152    1.378180   -0.474758
     24          1           0        2.052270    1.022721    1.573579
     25          1           0        4.104077   -0.625060   -1.535464
     26          1           0        4.042650   -1.448910    0.022675
     27          1           0        7.165995   -0.131845    0.320573
     28          1           0        1.366461   -2.308311   -1.228651
     29          1           0        0.971527   -1.496146    1.710437
     30          1           0        0.803951   -3.131235    1.021720
     31          1           0        2.394049   -2.346819    1.105915
     32          1           0       -2.802010   -1.676794   -0.237879
     33          1           0       -5.642484    1.495540    0.355060
     34          1           0       -3.794685    3.163192    0.274866
 ---------------------------------------------------------------------

 SCF Done:  E(RB3LYP) =  -1395.25560368     A.U. after   14 cycles

  1  O    Isotropic =   185.2112   Anisotropy =   133.9864

  2  C    Isotropic =    16.5137   Anisotropy =   151.0122

  3  C    Isotropic =    65.5499   Anisotropy =   142.0037

  4  C    Isotropic =     9.1159   Anisotropy =    92.9946

  5  N    Isotropic =    23.1009   Anisotropy =   217.3304

  6  C    Isotropic =   106.4031   Anisotropy =    42.8884

  7  C    Isotropic =   109.8747   Anisotropy =    38.7690

  8  O    Isotropic =   285.0227   Anisotropy =    60.5043

  9  C    Isotropic =   143.9349   Anisotropy =    37.1163

 10  C    Isotropic =     0.3880   Anisotropy =   106.0573

 11  O    Isotropic =   113.6766   Anisotropy =   192.6808

 12  O    Isotropic =   -52.1763   Anisotropy =   508.5140

 13  C    Isotropic =    98.5982   Anisotropy =    77.2150

 14  C    Isotropic =   164.4974   Anisotropy =    16.6369

 15  O    Isotropic =   115.7829   Anisotropy =   119.6632

 16  C    Isotropic =    49.1273   Anisotropy =   156.3210

 17  C    Isotropic =    48.0519   Anisotropy =    99.6098

 18  Cl   Isotropic =   709.5849   Anisotropy =   495.9639

 19  C    Isotropic =    42.7120   Anisotropy =   162.5778

 20  C    Isotropic =    59.6681   Anisotropy =   146.9522

 21  H    Isotropic =    20.0038   Anisotropy =    25.4779

 22  H    Isotropic =    27.3866   Anisotropy =     4.7865

 23  H    Isotropic =    26.6596   Anisotropy =     5.6573

 24  H    Isotropic =    29.7614   Anisotropy =    17.1799

 25  H    Isotropic =    29.0909   Anisotropy =     6.3943

 26  H    Isotropic =    28.9049   Anisotropy =     5.6449

 27  H    Isotropic =    24.7769   Anisotropy =    12.4687

 28  H    Isotropic =    26.6625   Anisotropy =     4.2667

 29  H    Isotropic =    30.2981   Anisotropy =     3.3764

 30  H    Isotropic =    30.6239   Anisotropy =     9.4425

 31  H    Isotropic =    30.5035   Anisotropy =     8.1366

 32  H    Isotropic =    23.6761   Anisotropy =    12.4573

 33  H    Isotropic =    24.0338   Anisotropy =     7.2650

 34  H    Isotropic =    24.5142   Anisotropy =     5.6103

 The electronic state is 1-A.
 Alpha  occ. eigenvalues -- -101.55954 -19.18182 -19.17322 -19.15534 -19.13256
 Alpha  occ. eigenvalues --  -19.12716 -14.31431 -10.31914 -10.28377 -10.25591
 Alpha  occ. eigenvalues --  -10.23944 -10.23783 -10.23446 -10.21396 -10.20450
 Alpha  occ. eigenvalues --  -10.19815 -10.19675 -10.18907 -10.18569 -10.16071
 Alpha  occ. eigenvalues --   -9.47405  -7.23840  -7.22900  -7.22875  -1.12374
 Alpha  occ. eigenvalues --   -1.11092  -1.07372  -1.04000  -1.03295  -0.92456
 Alpha  occ. eigenvalues --   -0.90175  -0.85019  -0.81880  -0.79196  -0.76751
 Alpha  occ. eigenvalues --   -0.74058  -0.71939  -0.67807  -0.64541  -0.63115
 Alpha  occ. eigenvalues --   -0.61129  -0.59618  -0.58028  -0.55325  -0.54102
 Alpha  occ. eigenvalues --   -0.52059  -0.51227  -0.50651  -0.50154  -0.49600
 Alpha  occ. eigenvalues --   -0.47309  -0.47299  -0.46566  -0.45350  -0.44306
 Alpha  occ. eigenvalues --   -0.43755  -0.42667  -0.41990  -0.41238  -0.40552
 Alpha  occ. eigenvalues --   -0.39652  -0.39493  -0.38905  -0.38826  -0.38409
 Alpha  occ. eigenvalues --   -0.37715  -0.37258  -0.36069  -0.34441  -0.34047
 Alpha  occ. eigenvalues --   -0.32412  -0.32389  -0.30710  -0.29949  -0.28794
 Alpha  occ. eigenvalues --   -0.28371  -0.26296  -0.23427
 Alpha virt. eigenvalues --   -0.06092  -0.02074  -0.01186  -0.00210   0.00796
 Alpha virt. eigenvalues --    0.00939   0.01613   0.01877   0.02428   0.03084
 Alpha virt. eigenvalues --    0.03404   0.03930   0.04641   0.04872   0.05107

 Mulliken atomic charges:
              1
     1  O   -0.638407
     2  C    0.022385
     3  C    0.109479
     4  C    0.704283
     5  N   -0.508587
     6  C    0.310609
     7  C    0.250136
     8  O   -0.536810
     9  C   -0.454042
    10  C    0.563787
    11  O   -0.434531
    12  O   -0.568920
    13  C    0.037790
    14  C   -0.446609
    15  O   -0.482861
    16  C   -0.902675
    17  C    1.008676
    18  Cl  -0.081505
    19  C   -0.620731
    20  C   -0.118062
    21  H    0.469916
    22  H    0.132884
    23  H    0.124176
    24  H    0.334300
    25  H    0.182749
    26  H    0.163385
    27  H    0.349624
    28  H    0.134623
    29  H    0.153076
    30  H    0.147946
    31  H    0.142279
    32  H    0.166851
    33  H    0.150393
    34  H    0.134391
 Sum of Mulliken atomic charges =   0.00000

 Dipole moment (field-independent basis, Debye):
    X=              2.6872    Y=             -3.1785    Z=             -1.7833  Tot=              4.5282
 Quadrupole moment (field-independent basis, Debye-Ang):
   XX=           -122.7038   YY=           -129.7982   ZZ=           -123.8109
   XY=            -20.1807   XZ=             -8.2627   YZ=              2.4976

 Normal termination of Gaussian 09 at Tue Mar 26 02:55:21 2019.
