 Gaussian 09, Revision B.01,
 Gaussian 09:  EM64L-G09RevB.01 12-Aug-2010

 ----------------------------------------------------------------------
 # b3lyp/6-311+G(2d,p) nmr guess=read geom=check integral(ultrafinegrid
 ) scrf=(iefpcm,read,solvent=methanol)
 ----------------------------------------------------------------------

 olvation
 ----------------------------------------------------------------------
 Redundant internal coordinates taken from checkpoint file:
 1b-conf-8.chk
 Charge =  0 Multiplicity = 1

                         Standard orientation:
 ---------------------------------------------------------------------
 Center     Atomic      Atomic             Coordinates (Angstroms)
 Number     Number       Type             X           Y           Z
 ---------------------------------------------------------------------
      1          8           0        0.994347   -2.295548   -1.452341
      2          6           0        1.863503   -1.495964   -0.814781
      3          6           0        1.572553   -0.152650   -0.497693
      4          6           0        0.272055    0.405181   -0.863000
      5          7           0       -0.637322   -0.227936   -1.513073
      6          6           0       -1.829602    0.634269   -1.522346
      7          6           0       -2.906436    0.057538   -0.586582
      8          8           0       -3.537306   -1.061233   -1.181209
      9          6           0       -2.364469   -0.325498    0.797295
     10          6           0       -3.478632   -0.784871    1.702191
     11          8           0       -4.421232    0.154046    1.853933
     12          8           0       -3.535004   -1.867582    2.242372
     13          6           0       -1.249814    2.015815   -1.148062
     14          6           0       -2.069529    2.957620   -0.293613
     15          8           0       -0.012553    1.660376   -0.464244
     16          6           0        2.519335    0.635361    0.171607
     17          6           0        3.739013    0.084988    0.517644
     18         17           0        4.924855    1.064301    1.350983
     19          6           0        4.040637   -1.244744    0.211107
     20          6           0        3.107666   -2.026971   -0.450497
     21          1           0        0.166836   -1.781915   -1.641425
     22          1           0       -2.268423    0.663871   -2.524472
     23          1           0       -3.698459    0.805854   -0.475690
     24          1           0       -2.869259   -1.749017   -1.354309
     25          1           0       -1.861373    0.525602    1.270970
     26          1           0       -1.645739   -1.143675    0.708206
     27          1           0       -5.124098   -0.188670    2.445294
     28          1           0       -0.945483    2.523898   -2.071458
     29          1           0       -2.354765    2.514734    0.663140
     30          1           0       -1.497935    3.867181   -0.096350
     31          1           0       -2.979033    3.238641   -0.832314
     32          1           0        2.285801    1.668748    0.409633
     33          1           0        5.003890   -1.661161    0.492004
     34          1           0        3.323068   -3.062569   -0.696151
 ---------------------------------------------------------------------

 SCF Done:  E(RB3LYP) =  -1395.25539778     A.U. after   12 cycles

  1  O    Isotropic =   185.7705   Anisotropy =   136.2198

  2  C    Isotropic =    16.2593   Anisotropy =   151.6284

  3  C    Isotropic =    66.3926   Anisotropy =   141.5055

  4  C    Isotropic =     8.0792   Anisotropy =    89.3449

  5  N    Isotropic =    23.9731   Anisotropy =   249.9209

  6  C    Isotropic =   105.3534   Anisotropy =    25.4581

  7  C    Isotropic =   106.5957   Anisotropy =    38.0630

  8  O    Isotropic =   270.4446   Anisotropy =    38.5571

  9  C    Isotropic =   139.8029   Anisotropy =    24.6576

 10  C    Isotropic =     0.0734   Anisotropy =   110.3667

 11  O    Isotropic =   117.9056   Anisotropy =   184.7541

 12  O    Isotropic =   -73.0437   Anisotropy =   477.9725

 13  C    Isotropic =    99.0397   Anisotropy =    72.1587

 14  C    Isotropic =   169.1857   Anisotropy =    17.9296

 15  O    Isotropic =   123.4280   Anisotropy =   142.1497

 16  C    Isotropic =    48.8901   Anisotropy =   156.5133

 17  C    Isotropic =    48.0170   Anisotropy =    99.8222

 18  Cl   Isotropic =   709.1791   Anisotropy =   496.7811

 19  C    Isotropic =    42.4142   Anisotropy =   163.0783

 20  C    Isotropic =    59.4797   Anisotropy =   147.2762

 21  H    Isotropic =    19.9385   Anisotropy =    24.9452

 22  H    Isotropic =    27.2749   Anisotropy =     4.6766

 23  H    Isotropic =    27.3869   Anisotropy =     3.8448

 24  H    Isotropic =    29.8166   Anisotropy =    14.6214

 25  H    Isotropic =    28.9959   Anisotropy =     4.0141

 26  H    Isotropic =    29.6929   Anisotropy =     6.1899

 27  H    Isotropic =    24.8101   Anisotropy =    12.5402

 28  H    Isotropic =    26.7937   Anisotropy =     6.3648

 29  H    Isotropic =    30.3458   Anisotropy =     5.4022

 30  H    Isotropic =    30.0153   Anisotropy =     9.8906

 31  H    Isotropic =    30.2908   Anisotropy =     9.5172

 32  H    Isotropic =    23.7293   Anisotropy =    12.4149

 33  H    Isotropic =    24.0147   Anisotropy =     7.2018

 34  H    Isotropic =    24.4937   Anisotropy =     5.5710

 The electronic state is 1-A.
 Alpha  occ. eigenvalues -- -101.55975 -19.18107 -19.17520 -19.15575 -19.13760
 Alpha  occ. eigenvalues --  -19.12754 -14.31594 -10.31863 -10.28608 -10.25664
 Alpha  occ. eigenvalues --  -10.24150 -10.23824 -10.23795 -10.21528 -10.20518
 Alpha  occ. eigenvalues --  -10.19880 -10.19729 -10.18663 -10.18612 -10.16795
 Alpha  occ. eigenvalues --   -9.47426  -7.23861  -7.22921  -7.22895  -1.12301
 Alpha  occ. eigenvalues --   -1.11331  -1.07433  -1.04221  -1.03344  -0.92710
 Alpha  occ. eigenvalues --   -0.90214  -0.85101  -0.82067  -0.78840  -0.77129
 Alpha  occ. eigenvalues --   -0.74131  -0.71812  -0.67877  -0.64440  -0.63088
 Alpha  occ. eigenvalues --   -0.61798  -0.60583  -0.58955  -0.54990  -0.53869
 Alpha  occ. eigenvalues --   -0.53118  -0.50778  -0.50669  -0.49661  -0.48551
 Alpha  occ. eigenvalues --   -0.47909  -0.47330  -0.46121  -0.45565  -0.44546
 Alpha  occ. eigenvalues --   -0.43835  -0.43235  -0.42120  -0.41545  -0.40753
 Alpha  occ. eigenvalues --   -0.40390  -0.39811  -0.39382  -0.38939  -0.38753
 Alpha  occ. eigenvalues --   -0.37308  -0.36974  -0.36354  -0.34602  -0.33724
 Alpha  occ. eigenvalues --   -0.32429  -0.32402  -0.30738  -0.30302  -0.29831
 Alpha  occ. eigenvalues --   -0.28240  -0.26204  -0.23478
 Alpha virt. eigenvalues --   -0.06227  -0.02122  -0.01286  -0.00125   0.00835
 Alpha virt. eigenvalues --    0.00946   0.01499   0.01636   0.02675   0.03048
 Alpha virt. eigenvalues --    0.03468   0.03680   0.04564   0.04648   0.05491

 Mulliken atomic charges:
              1
     1  O   -0.614517
     2  C   -0.044833
     3  C    0.090971
     4  C    0.533133
     5  N   -0.512473
     6  C    0.326523
     7  C    0.024667
     8  O   -0.490150
     9  C   -0.403895
    10  C    0.604464
    11  O   -0.413010
    12  O   -0.550594
    13  C    0.163700
    14  C   -0.513934
    15  O   -0.410645
    16  C   -0.723540
    17  C    1.020346
    18  Cl  -0.082400
    19  C   -0.625222
    20  C   -0.193617
    21  H    0.451477
    22  H    0.128943
    23  H    0.150431
    24  H    0.302201
    25  H    0.188535
    26  H    0.186260
    27  H    0.359602
    28  H    0.129227
    29  H    0.149469
    30  H    0.153171
    31  H    0.164321
    32  H    0.165692
    33  H    0.150783
    34  H    0.134916
 Sum of Mulliken atomic charges =   0.00000

 Dipole moment (field-independent basis, Debye):
    X=             -1.5839    Y=              4.9409    Z=             -1.3533  Tot=              5.3622
 Quadrupole moment (field-independent basis, Debye-Ang):
   XX=           -128.0885   YY=           -125.5260   ZZ=           -127.6186
   XY=            -21.8124   XZ=             -2.0994   YZ=              0.0415

 Normal termination of Gaussian 09 at Tue Mar 26 03:07:14 2019.
