 Gaussian 09, Revision B.01,
 Gaussian 09:  EM64L-G09RevB.01 12-Aug-2010

 ----------------------------------------------------------------------
 # b3lyp/6-311+G(2d,p) nmr guess=read geom=check integral(ultrafinegrid
 ) scrf=(iefpcm,read,solvent=methanol)
 ----------------------------------------------------------------------

 olvation
 ----------------------------------------------------------------------
 Redundant internal coordinates taken from checkpoint file:
 1b-conf-5.chk
 Charge =  0 Multiplicity = 1

                         Standard orientation:
 ---------------------------------------------------------------------
 Center     Atomic      Atomic             Coordinates (Angstroms)
 Number     Number       Type             X           Y           Z
 ---------------------------------------------------------------------
      1          8           0        0.309745   -2.260000   -0.852474
      2          6           0        1.358122   -1.469368   -0.565759
      3          6           0        1.247163   -0.066045   -0.459240
      4          6           0       -0.056062    0.563759   -0.665846
      5          7           0       -1.116915   -0.073450   -0.994821
      6          6           0       -2.210198    0.900069   -1.065880
      7          6           0       -3.479897    0.327148   -0.408089
      8          8           0       -3.938659   -0.749799   -1.204426
      9          6           0       -3.387866   -0.098435    1.074186
     10          6           0       -2.214026   -0.983985    1.420077
     11          8           0       -2.310912   -2.201138    0.864607
     12          8           0       -1.288355   -0.658056    2.134436
     13          6           0       -1.574819    2.224637   -0.548832
     14          6           0       -1.986781    2.766341    0.806825
     15          8           0       -0.157068    1.889054   -0.475672
     16          6           0        2.371035    0.708224   -0.142300
     17          6           0        3.590233    0.086146    0.058157
     18         17           0        4.997082    1.050684    0.448274
     19          6           0        3.717324   -1.301668   -0.047623
     20          6           0        2.605991   -2.072183   -0.356727
     21          1           0       -0.486547   -1.686589   -1.005019
     22          1           0       -2.479911    1.026674   -2.121297
     23          1           0       -4.265285    1.089551   -0.468699
     24          1           0       -3.245588   -1.431428   -1.236113
     25          1           0       -4.306341   -0.654957    1.283651
     26          1           0       -3.353533    0.767563    1.732399
     27          1           0       -1.516507   -2.724143    1.104018
     28          1           0       -1.667994    2.999951   -1.312724
     29          1           0       -1.707164    2.071567    1.602083
     30          1           0       -1.476161    3.715435    0.984319
     31          1           0       -3.065188    2.948796    0.839099
     32          1           0        2.273580    1.786068   -0.057375
     33          1           0        4.682663   -1.772407    0.113838
     34          1           0        2.682657   -3.151878   -0.440550
 ---------------------------------------------------------------------

 SCF Done:  E(RB3LYP) =  -1395.24925540     A.U. after   13 cycles

  1  O    Isotropic =   185.7902   Anisotropy =   134.4191

  2  C    Isotropic =    16.1223   Anisotropy =   151.7742

  3  C    Isotropic =    65.7030   Anisotropy =   143.4378

  4  C    Isotropic =     9.6081   Anisotropy =    88.8402

  5  N    Isotropic =    31.5191   Anisotropy =   234.3446

  6  C    Isotropic =   104.1604   Anisotropy =    30.3270

  7  C    Isotropic =   109.5828   Anisotropy =    51.8091

  8  O    Isotropic =   256.9961   Anisotropy =    44.2980

  9  C    Isotropic =   139.4781   Anisotropy =    12.0186

 10  C    Isotropic =    -1.2221   Anisotropy =   115.9686

 11  O    Isotropic =   103.5131   Anisotropy =   171.2330

 12  O    Isotropic =   -73.8722   Anisotropy =   483.0939

 13  C    Isotropic =   100.2700   Anisotropy =    76.8092

 14  C    Isotropic =   163.4007   Anisotropy =    19.5565

 15  O    Isotropic =   116.4755   Anisotropy =   124.8361

 16  C    Isotropic =    48.8739   Anisotropy =   156.6265

 17  C    Isotropic =    47.8249   Anisotropy =    99.7965

 18  Cl   Isotropic =   709.5025   Anisotropy =   497.5888

 19  C    Isotropic =    42.5103   Anisotropy =   162.7458

 20  C    Isotropic =    59.5535   Anisotropy =   147.3013

 21  H    Isotropic =    19.7082   Anisotropy =    24.5486

 22  H    Isotropic =    26.8232   Anisotropy =     5.7099

 23  H    Isotropic =    27.5220   Anisotropy =     5.1098

 24  H    Isotropic =    28.3982   Anisotropy =    13.6030

 25  H    Isotropic =    28.9149   Anisotropy =     6.8475

 26  H    Isotropic =    28.9811   Anisotropy =     4.2345

 27  H    Isotropic =    24.9551   Anisotropy =     9.7490

 28  H    Isotropic =    26.5365   Anisotropy =     5.9213

 29  H    Isotropic =    30.2861   Anisotropy =     4.1627

 30  H    Isotropic =    30.2351   Anisotropy =     9.5285

 31  H    Isotropic =    30.6048   Anisotropy =     8.3013

 32  H    Isotropic =    23.7532   Anisotropy =    12.2387

 33  H    Isotropic =    24.0377   Anisotropy =     7.1827

 34  H    Isotropic =    24.5112   Anisotropy =     5.8840

 The electronic state is 1-A.
 Alpha  occ. eigenvalues -- -101.55939 -19.17992 -19.17467 -19.15450 -19.13460
 Alpha  occ. eigenvalues --  -19.12495 -14.31370 -10.31807 -10.28474 -10.25603
 Alpha  occ. eigenvalues --  -10.24158 -10.24141 -10.23795 -10.21624 -10.20455
 Alpha  occ. eigenvalues --  -10.19831 -10.19692 -10.18589 -10.18551 -10.16422
 Alpha  occ. eigenvalues --   -9.47389  -7.23825  -7.22885  -7.22859  -1.12107
 Alpha  occ. eigenvalues --   -1.11229  -1.07295  -1.04147  -1.03089  -0.92773
 Alpha  occ. eigenvalues --   -0.90140  -0.85005  -0.81861  -0.78551  -0.76825
 Alpha  occ. eigenvalues --   -0.74056  -0.71923  -0.68108  -0.64584  -0.63406
 Alpha  occ. eigenvalues --   -0.61281  -0.60189  -0.58987  -0.54974  -0.53375
 Alpha  occ. eigenvalues --   -0.52746  -0.51110  -0.50461  -0.49723  -0.48470
 Alpha  occ. eigenvalues --   -0.48283  -0.46885  -0.45966  -0.45254  -0.44261
 Alpha  occ. eigenvalues --   -0.43791  -0.42790  -0.42392  -0.41891  -0.40879
 Alpha  occ. eigenvalues --   -0.40115  -0.39714  -0.39244  -0.38884  -0.38387
 Alpha  occ. eigenvalues --   -0.37385  -0.37229  -0.36169  -0.34660  -0.33414
 Alpha  occ. eigenvalues --   -0.32376  -0.32352  -0.30448  -0.30083  -0.29115
 Alpha  occ. eigenvalues --   -0.28343  -0.26174  -0.23391
 Alpha virt. eigenvalues --   -0.06218  -0.02133  -0.01326   0.00013   0.00880
 Alpha virt. eigenvalues --    0.01316   0.01418   0.02294   0.02940   0.03299
 Alpha virt. eigenvalues --    0.03616   0.04082   0.04256   0.04752   0.05032

 Mulliken atomic charges:
              1
     1  O   -0.636462
     2  C    0.066117
     3  C    0.091030
     4  C    0.659970
     5  N   -0.625793
     6  C    0.677413
     7  C   -0.189321
     8  O   -0.469520
     9  C   -0.193714
    10  C    0.465991
    11  O   -0.410059
    12  O   -0.509064
    13  C   -0.035186
    14  C   -0.507766
    15  O   -0.450923
    16  C   -0.845225
    17  C    1.041155
    18  Cl  -0.085661
    19  C   -0.597397
    20  C   -0.220023
    21  H    0.464859
    22  H    0.119097
    23  H    0.142787
    24  H    0.296780
    25  H    0.172458
    26  H    0.172615
    27  H    0.354846
    28  H    0.129268
    29  H    0.157152
    30  H    0.152660
    31  H    0.159172
    32  H    0.167531
    33  H    0.150665
    34  H    0.134546
 Sum of Mulliken atomic charges =   0.00000

 Dipole moment (field-independent basis, Debye):
    X=             -3.2886    Y=              1.9727    Z=             -0.6545  Tot=              3.8904
 Quadrupole moment (field-independent basis, Debye-Ang):
   XX=           -127.2436   YY=           -111.9626   ZZ=           -132.0622
   XY=            -17.6318   XZ=             -6.0937   YZ=             -4.4453

 Normal termination of Gaussian 09 at Tue Mar 26 03:04:15 2019.
