 Gaussian 09, Revision B.01,
 Gaussian 09:  EM64L-G09RevB.01 12-Aug-2010

 ----------------------------------------------------------------------
 # m062x/6-31+G(d,p) opt freq=noraman integral(ultrafinegrid) scrf=(ief
 pcm,read,solvent=methanol)
 ----------------------------------------------------------------------

 Candidate Structure: 1b, Conformer: 13 geometry optimization and frequ
 ency calculation with methanol solvation
 ----------------------------------------------------------------------
 Symbolic Z-matrix:
 Charge =  0 Multiplicity = 1

 SCF Done:  E(RM062X) =  -1394.55537481     A.U. after   15 cycles
 SCF Done:  E(RM062X) =  -1394.56755908     A.U. after   14 cycles
 SCF Done:  E(RM062X) =  -1394.56098743     A.U. after   15 cycles
 SCF Done:  E(RM062X) =  -1394.57096037     A.U. after   14 cycles
 SCF Done:  E(RM062X) =  -1394.57228526     A.U. after   13 cycles
 SCF Done:  E(RM062X) =  -1394.57251273     A.U. after   16 cycles
 SCF Done:  E(RM062X) =  -1394.57312112     A.U. after   13 cycles
 SCF Done:  E(RM062X) =  -1394.57335007     A.U. after   13 cycles
 SCF Done:  E(RM062X) =  -1394.57346599     A.U. after   14 cycles
 SCF Done:  E(RM062X) =  -1394.57356299     A.U. after   13 cycles
 SCF Done:  E(RM062X) =  -1394.57357246     A.U. after   11 cycles
 SCF Done:  E(RM062X) =  -1394.57357905     A.U. after   11 cycles
 SCF Done:  E(RM062X) =  -1394.57358500     A.U. after   11 cycles
 SCF Done:  E(RM062X) =  -1394.57358478     A.U. after   11 cycles
 SCF Done:  E(RM062X) =  -1394.57358614     A.U. after   10 cycles
 SCF Done:  E(RM062X) =  -1394.57358655     A.U. after    9 cycles
 SCF Done:  E(RM062X) =  -1394.57358693     A.U. after   10 cycles
 SCF Done:  E(RM062X) =  -1394.57358707     A.U. after    9 cycles
 Optimization completed.
    -- Stationary point found.
 Normal termination of Gaussian 09 at Fri Mar 22 23:12:29 2019.

 ----------------------------------------------------------------------
 #N Geom=AllCheck Guess=TCheck SCRF=Check GenChk RM062X/6-31+G(d,p) Fre
 q
 ----------------------------------------------------------------------

 ency calculation with methanol solvation
 ----------------------------------------------------------------------
 Redundant internal coordinates taken from checkpoint file:
 1b-conf-13.chk
 Charge =  0 Multiplicity = 1

                         Standard orientation:
 ---------------------------------------------------------------------
 Center     Atomic      Atomic             Coordinates (Angstroms)
 Number     Number       Type             X           Y           Z
 ---------------------------------------------------------------------
      1          8           0       -0.758798    2.794491    0.124902
      2          6           0       -1.632267    1.775205    0.081290
      3          6           0       -1.278631    0.490097   -0.379234
      4          6           0        0.092576    0.237510   -0.817601
      5          7           0        1.012345    1.132927   -0.871488
      6          6           0        2.258261    0.451468   -1.243877
      7          6           0        3.291744    0.521059   -0.093109
      8          8           0        4.045633    1.715758   -0.215996
      9          6           0        2.705666    0.478265    1.332439
     10          6           0        2.035889   -0.810513    1.730858
     11          8           0        2.925534   -1.773165    2.015861
     12          8           0        0.838572   -0.983085    1.800129
     13          6           0        1.758339   -0.929881   -1.738492
     14          6           0        2.547382   -2.170649   -1.388926
     15          8           0        0.418926   -1.013932   -1.181387
     16          6           0       -2.231197   -0.536206   -0.404349
     17          6           0       -3.519893   -0.278944    0.026223
     18         17           0       -4.713056   -1.558399   -0.006317
     19          6           0       -3.884737    0.988534    0.486887
     20          6           0       -2.944394    2.006900    0.513489
     21          1           0        0.115634    2.475943   -0.222830
     22          1           0        2.732974    0.975260   -2.079629
     23          1           0        4.018081   -0.289356   -0.219515
     24          1           0        3.444812    2.479359   -0.148621
     25          1           0        1.972451    1.280965    1.440416
     26          1           0        3.540792    0.652945    2.016103
     27          1           0        2.444117   -2.586788    2.278753
     28          1           0        1.624330   -0.872253   -2.825263
     29          1           0        2.671001   -2.291803   -0.311456
     30          1           0        2.039209   -3.053522   -1.783276
     31          1           0        3.538340   -2.115478   -1.849034
     32          1           0       -1.947842   -1.522431   -0.759043
     33          1           0       -4.901485    1.172992    0.821823
     34          1           0       -3.208247    2.998863    0.867714
 ---------------------------------------------------------------------

 SCF Done:  E(RM062X) =  -1394.57358707     A.U. after    1 cycles

 The electronic state is 1-A.
 Alpha  occ. eigenvalues -- -102.67913 -19.70243 -19.70010 -19.67478 -19.65812
 Alpha  occ. eigenvalues --  -19.65459 -14.77394 -10.70360 -10.67237 -10.63866
 Alpha  occ. eigenvalues --  -10.62611 -10.62435 -10.62144 -10.59853 -10.58550
 Alpha  occ. eigenvalues --  -10.58236 -10.58105 -10.56886 -10.56824 -10.55412
 Alpha  occ. eigenvalues --   -9.82567  -7.54965  -7.54311  -7.54304  -1.24837
 Alpha  occ. eigenvalues --   -1.24042  -1.19361  -1.16122  -1.15213  -1.03837
 Alpha  occ. eigenvalues --   -1.00703  -0.95182  -0.92332  -0.88742  -0.87156
 Alpha  occ. eigenvalues --   -0.83533  -0.81335  -0.77056  -0.73262  -0.71923
 Alpha  occ. eigenvalues --   -0.69787  -0.68632  -0.67437  -0.62779  -0.61348
 Alpha  occ. eigenvalues --   -0.60902  -0.59226  -0.58559  -0.57413  -0.56129
 Alpha  occ. eigenvalues --   -0.54853  -0.54299  -0.53687  -0.53479  -0.51882
 Alpha  occ. eigenvalues --   -0.51057  -0.50204  -0.49269  -0.49003  -0.48194
 Alpha  occ. eigenvalues --   -0.46626  -0.46330  -0.45934  -0.45839  -0.44965
 Alpha  occ. eigenvalues --   -0.43978  -0.43588  -0.42415  -0.41166  -0.40313
 Alpha  occ. eigenvalues --   -0.38836  -0.38713  -0.38370  -0.36655  -0.35751
 Alpha  occ. eigenvalues --   -0.34203  -0.31796  -0.28364
 Alpha virt. eigenvalues --   -0.02837   0.00696   0.01203   0.01851   0.02106
 Alpha virt. eigenvalues --    0.02344   0.02786   0.03213   0.03480   0.04577
 Alpha virt. eigenvalues --    0.04796   0.04881   0.05179   0.05569   0.06276

 Mulliken atomic charges:
              1
     1  O   -0.541240
     2  C   -0.574019
     3  C    0.052347
     4  C    0.123063
     5  N   -0.331317
     6  C   -0.018072
     7  C   -0.138912
     8  O   -0.534023
     9  C   -0.099579
    10  C    0.085262
    11  O   -0.422973
    12  O   -0.353000
    13  C    0.294286
    14  C   -0.421898
    15  O   -0.262384
    16  C   -0.527769
    17  C    0.078058
    18  Cl   0.199134
    19  C   -0.493162
    20  C    0.411797
    21  H    0.454298
    22  H    0.207504
    23  H    0.184078
    24  H    0.415217
    25  H    0.203317
    26  H    0.208493
    27  H    0.443986
    28  H    0.193936
    29  H    0.165774
    30  H    0.185727
    31  H    0.188669
    32  H    0.218129
    33  H    0.206431
    34  H    0.198841
 Sum of Mulliken atomic charges =   0.00000

 Dipole moment (field-independent basis, Debye):
    X=              3.9129    Y=             -1.6035    Z=             -1.1940  Tot=              4.3940
 Quadrupole moment (field-independent basis, Debye-Ang):
   XX=           -129.3798   YY=           -118.8789   ZZ=           -118.9504
   XY=            -13.4404   XZ=             -2.9947   YZ=              1.7770

  Exact polarizability: 300.431  19.234 248.942 -26.361  13.919 172.525
 Approx polarizability: 264.455  19.808 238.698 -21.377  13.567 164.724

                     1                      2                      3
                     A                      A                      A
 Frequencies --    19.3540                32.4814                50.8709
 Red. masses --     8.9236                 8.2267                 7.1204
 Frc consts  --     0.0020                 0.0051                 0.0109
 IR Inten    --     0.2585                 0.1499                 1.5403

                     4                      5                      6
                     A                      A                      A
 Frequencies --    61.0459                94.0035               110.3247
 Red. masses --     7.2602                 6.3431                 6.3644
 Frc consts  --     0.0159                 0.0330                 0.0456
 IR Inten    --     2.0635                 2.7664                 4.8573

                     7                      8                      9
                     A                      A                      A
 Frequencies --   127.6020               133.5291               148.9184
 Red. masses --     6.9245                 6.1321                 5.4933
 Frc consts  --     0.0664                 0.0644                 0.0718
 IR Inten    --     1.1938                 3.8217                 1.2603

                    10                     11                     12
                     A                      A                      A
 Frequencies --   178.6378               193.3616               238.2441
 Red. masses --     5.2312                 3.8211                 2.1073
 Frc consts  --     0.0984                 0.0842                 0.0705
 IR Inten    --     0.6803                 0.6698                 1.1363

                    13                     14                     15
                     A                      A                      A
 Frequencies --   255.8428               279.7189               299.3581
 Red. masses --     1.6565                 3.4535                 4.9422
 Frc consts  --     0.0639                 0.1592                 0.2609
 IR Inten    --     1.2757                 9.7049                15.8001

                    16                     17                     18
                     A                      A                      A
 Frequencies --   315.6576               338.3266               348.6265
 Red. masses --     1.9259                 2.2371                 6.0178
 Frc consts  --     0.1131                 0.1509                 0.4309
 IR Inten    --    55.3104                89.6219                 0.4935

                    19                     20                     21
                     A                      A                      A
 Frequencies --   378.5093               382.3954               417.0568
 Red. masses --    11.2524                 5.0589                 6.1381
 Frc consts  --     0.9498                 0.4358                 0.6290
 IR Inten    --     2.8668                62.7061                11.9894

                    22                     23                     24
                     A                      A                      A
 Frequencies --   430.4493               449.0118               466.6660
 Red. masses --     3.8687                 2.4992                 3.5161
 Frc consts  --     0.4223                 0.2969                 0.4511
 IR Inten    --     7.2589                 5.9922                 3.1444

                    25                     26                     27
                     A                      A                      A
 Frequencies --   498.2890               536.6186               552.7761
 Red. masses --     3.6444                 3.5606                 3.8297
 Frc consts  --     0.5331                 0.6041                 0.6895
 IR Inten    --    10.2955                 3.8644                 6.4248

                    28                     29                     30
                     A                      A                      A
 Frequencies --   576.4776               616.5300               636.0425
 Red. masses --     2.8391                 1.5471                 2.7451
 Frc consts  --     0.5559                 0.3465                 0.6543
 IR Inten    --   115.7274               114.7989                63.1549

                    31                     32                     33
                     A                      A                      A
 Frequencies --   657.2283               702.8003               706.9222
 Red. masses --     7.5374                 5.1470                 4.4237
 Frc consts  --     1.9182                 1.4979                 1.3025
 IR Inten    --    26.8684                 0.9701                71.6527

                    34                     35                     36
                     A                      A                      A
 Frequencies --   730.8773               755.9342               764.9731
 Red. masses --     4.2736                 1.5591                 3.0466
 Frc consts  --     1.3450                 0.5249                 1.0504
 IR Inten    --    52.5747                62.0398                62.5317

                    37                     38                     39
                     A                      A                      A
 Frequencies --   782.4984               850.3184               855.4888
 Red. masses --     2.5610                 1.5340                 4.5068
 Frc consts  --     0.9239                 0.6535                 1.9433
 IR Inten    --   106.8647                40.3906                 9.4799

                    40                     41                     42
                     A                      A                      A
 Frequencies --   864.6614               904.8242               923.1855
 Red. masses --     4.5214                 2.7655                 1.4375
 Frc consts  --     1.9917                 1.3340                 0.7218
 IR Inten    --     8.2372                22.4980                19.5579

                    43                     44                     45
                     A                      A                      A
 Frequencies --   935.1985               950.7790               962.9977
 Red. masses --     3.5472                 4.6027                 2.2023
 Frc consts  --     1.8279                 2.4515                 1.2033
 IR Inten    --     1.6681                10.2354                12.4754

                    46                     47                     48
                     A                      A                      A
 Frequencies --   985.8908               986.4020              1054.2904
 Red. masses --     1.3450                 2.4220                 1.8867
 Frc consts  --     0.7702                 1.3885                 1.2356
 IR Inten    --     0.7371                 7.8417                20.2497

                    49                     50                     51
                     A                      A                      A
 Frequencies --  1066.0138              1103.5896              1105.0515
 Red. masses --     3.2237                 2.5471                 2.6031
 Frc consts  --     2.1584                 1.8278                 1.8729
 IR Inten    --   145.0927               164.6720                93.6220

                    52                     53                     54
                     A                      A                      A
 Frequencies --  1117.1183              1128.3269              1151.4182
 Red. masses --     2.7755                 2.3222                 1.5220
 Frc consts  --     2.0408                 1.7419                 1.1889
 IR Inten    --    88.7289               159.5420                78.7165

                    55                     56                     57
                     A                      A                      A
 Frequencies --  1168.2456              1172.3301              1198.8165
 Red. masses --     1.8304                 2.1041                 2.0995
 Frc consts  --     1.4718                 1.7038                 1.7777
 IR Inten    --    28.6871                57.5565               130.0795

                    58                     59                     60
                     A                      A                      A
 Frequencies --  1229.3767              1238.8273              1248.8597
 Red. masses --     1.4315                 1.3144                 1.5843
 Frc consts  --     1.2747                 1.1885                 1.4559
 IR Inten    --   132.0930                66.0286               178.3964

                    61                     62                     63
                     A                      A                      A
 Frequencies --  1278.5175              1291.9668              1317.5558
 Red. masses --     2.2459                 1.6354                 1.4267
 Frc consts  --     2.1629                 1.6083                 1.4593
 IR Inten    --   191.7130                24.8977                21.5905

                    64                     65                     66
                     A                      A                      A
 Frequencies --  1332.2621              1348.5383              1356.7343
 Red. masses --     2.3199                 2.0480                 1.5271
 Frc consts  --     2.4261                 2.1943                 1.6561
 IR Inten    --    84.5661                29.5682                11.4807

                    67                     68                     69
                     A                      A                      A
 Frequencies --  1385.7499              1388.7195              1394.4497
 Red. masses --     1.4408                 1.5159                 2.3486
 Frc consts  --     1.6302                 1.7225                 2.6908
 IR Inten    --    43.3614                14.6321               202.9131

                    70                     71                     72
                     A                      A                      A
 Frequencies --  1407.0484              1424.7350              1429.6208
 Red. masses --     1.9209                 1.2783                 1.4463
 Frc consts  --     2.2407                 1.5288                 1.7416
 IR Inten    --    43.5012                37.8034                63.6142

                    73                     74                     75
                     A                      A                      A
 Frequencies --  1462.9389              1474.3432              1490.8840
 Red. masses --     2.6717                 1.1923                 1.1976
 Frc consts  --     3.3690                 1.5270                 1.5684
 IR Inten    --   208.6095                43.6674                 3.9585

                    76                     77                     78
                     A                      A                      A
 Frequencies --  1493.4787              1506.1142              1531.5796
 Red. masses --     1.9599                 1.0824                 3.6050
 Frc consts  --     2.5756                 1.4467                 4.9823
 IR Inten    --    28.7860                34.7093               322.0830

                    79                     80                     81
                     A                      A                      A
 Frequencies --  1648.2785              1685.6899              1725.2003
 Red. masses --     5.7766                 6.9611                 9.3987
 Frc consts  --     9.2467                11.6542                16.4815
 IR Inten    --    62.4384                90.0830               496.0226

                    82                     83                     84
                     A                      A                      A
 Frequencies --  1836.1639              3072.0570              3087.1722
 Red. masses --    10.4445                 1.0874                 1.0383
 Frc consts  --    20.7474                 6.0463                 5.8303
 IR Inten    --   588.0330                16.7590                 9.6485

                    85                     86                     87
                     A                      A                      A
 Frequencies --  3097.5058              3101.7940              3106.0588
 Red. masses --     1.0857                 1.0777                 1.0687
 Frc consts  --     6.1375                 6.1091                 6.0749
 IR Inten    --    15.6864                14.1341                 9.7995

                    88                     89                     90
                     A                      A                      A
 Frequencies --  3161.8675              3169.3631              3191.6242
 Red. masses --     1.1021                 1.1064                 1.1009
 Frc consts  --     6.4917                 6.5477                 6.6070
 IR Inten    --    10.7582                 4.9213                 5.1774

                    91                     92                     93
                     A                      A                      A
 Frequencies --  3211.0716              3222.8868              3226.1069
 Red. masses --     1.0904                 1.0970                 1.0938
 Frc consts  --     6.6244                 6.7136                 6.7071
 IR Inten    --     2.1123                 9.1903                10.7978

                    94                     95                     96
                     A                      A                      A
 Frequencies --  3238.7604              3592.6852              3697.7875
 Red. masses --     1.0720                 1.0648                 1.0669
 Frc consts  --     6.6253                 8.0975                 8.5949
 IR Inten    --  1118.7237               334.2349               164.1620

 - Thermochemistry -
 -------------------
 Temperature   298.150 Kelvin.  Pressure   1.00000 Atm.
 Atom     1 has atomic number  8 and mass  15.99491

 Molecular mass:   299.05605 amu.
 Principal axes and moments of inertia in atomic units:
                           1         2         3
     Eigenvalues --  3346.479049500.74613**********
           X            0.99981  -0.01805  -0.00703
           Y            0.01834   0.99885   0.04422
           Z            0.00623  -0.04434   0.99900
 This molecule is an asymmetric top.
 Rotational symmetry number  1.
 Warning -- assumption of classical behavior for rotation
           may cause significant error
 Rotational temperatures (Kelvin)      0.02588     0.00912     0.00829
 Rotational constants (GHZ):           0.53930     0.18996     0.17275
 Zero-point vibrational energy     692980.4 (Joules/Mol)
                                  165.62630 (Kcal/Mol)
 Warning -- explicit consideration of  29 degrees of freedom as
           vibrations may cause significant error
 Vibrational temperatures:     27.85    46.73    73.19    87.83   135.25
          (Kelvin)            158.73   183.59   192.12   214.26   257.02
                              278.20   342.78   368.10   402.45   430.71
                              454.16   486.78   501.60   544.59   550.18
                              600.05   619.32   646.03   671.43   716.93
                              772.07   795.32   829.42   887.05   915.12
                              945.60  1011.17  1017.10  1051.57  1087.62
                             1100.62  1125.84  1223.42  1230.86  1244.05
                             1301.84  1328.26  1345.54  1367.96  1385.54
                             1418.48  1419.21  1516.89  1533.75  1587.82
                             1589.92  1607.28  1623.41  1656.63  1680.84
                             1686.72  1724.83  1768.80  1782.39  1796.83
                             1839.50  1858.85  1895.67  1916.83  1940.24
                             1952.04  1993.78  1998.06  2006.30  2024.43
                             2049.87  2056.90  2104.84  2121.25  2145.05
                             2148.78  2166.96  2203.60  2371.50  2425.33
                             2482.18  2641.83  4420.00  4441.75  4456.61
                             4462.78  4468.92  4549.22  4560.00  4592.03
                             4620.01  4637.01  4641.64  4659.85  5169.07
                             5320.28

 Zero-point correction=                           0.263942 (Hartree/Particle)
 Thermal correction to Energy=                    0.282270
 Thermal correction to Enthalpy=                  0.283214
 Thermal correction to Gibbs Free Energy=         0.215948
 Sum of electronic and zero-point Energies=          -1394.309645
 Sum of electronic and thermal Energies=             -1394.291317
 Sum of electronic and thermal Enthalpies=           -1394.290373
 Sum of electronic and thermal Free Energies=        -1394.357639

                     E (Thermal)             CV                S
                      KCal/Mol        Cal/Mol-Kelvin    Cal/Mol-Kelvin
 Total                  177.127             69.507            141.573
 Electronic               0.000              0.000              0.000
 Translational            0.889              2.981             42.983
 Rotational               0.889              2.981             34.162
 Vibrational            175.350             63.545             64.427
 Vibration     1          0.593              1.986              6.699
 Vibration     2          0.594              1.983              5.672
 Vibration     3          0.595              1.977              4.783
 Vibration     4          0.597              1.973              4.423
 Vibration     5          0.603              1.953              3.575
 Vibration     6          0.606              1.941              3.263
 Vibration     7          0.611              1.926              2.982
 Vibration     8          0.613              1.920              2.895
 Vibration     9          0.618              1.904              2.686
 Vibration    10          0.629              1.869              2.343
 Vibration    11          0.635              1.849              2.195
 Vibration    12          0.656              1.782              1.816
 Vibration    13          0.666              1.753              1.690
 Vibration    14          0.680              1.711              1.535
 Vibration    15          0.692              1.675              1.420
 Vibration    16          0.703              1.644              1.333
 Vibration    17          0.719              1.599              1.220
 Vibration    18          0.726              1.578              1.172
 Vibration    19          0.749              1.516              1.045
 Vibration    20          0.752              1.508              1.030
 Vibration    21          0.780              1.433              0.902
 Vibration    22          0.792              1.404              0.857
 Vibration    23          0.808              1.363              0.799
 Vibration    24          0.824              1.324              0.747
 Vibration    25          0.854              1.254              0.662
 Vibration    26          0.892              1.169              0.573
 Vibration    27          0.908              1.134              0.538
 Vibration    28          0.933              1.082              0.492
 Vibration    29          0.976              0.997              0.422

 Optimization completed.
    -- Stationary point found.
 Normal termination of Gaussian 09 at Fri Mar 22 23:39:01 2019.
