 Gaussian 09, Revision B.01,
 Gaussian 09:  EM64L-G09RevB.01 12-Aug-2010

 ----------------------------------------------------------------------
 # m062x/6-31+G(d,p) opt freq=noraman integral(ultrafinegrid) scrf=(ief
 pcm,read,solvent=methanol)
 ----------------------------------------------------------------------

 Candidate Structure: 1b, Conformer: 4 geometry optimization and freque
 ncy calculation with methanol solvation
 ----------------------------------------------------------------------
 Symbolic Z-matrix:
 Charge =  0 Multiplicity = 1

 SCF Done:  E(RM062X) =  -1394.56010138     A.U. after   16 cycles
 SCF Done:  E(RM062X) =  -1394.57471346     A.U. after   14 cycles
 SCF Done:  E(RM062X) =  -1394.57599878     A.U. after   17 cycles
 SCF Done:  E(RM062X) =  -1394.57686958     A.U. after   14 cycles
 SCF Done:  E(RM062X) =  -1394.57756807     A.U. after   17 cycles
 SCF Done:  E(RM062X) =  -1394.57762501     A.U. after   13 cycles
 SCF Done:  E(RM062X) =  -1394.57753130     A.U. after   13 cycles
 SCF Done:  E(RM062X) =  -1394.57781895     A.U. after   13 cycles
 SCF Done:  E(RM062X) =  -1394.57785649     A.U. after   13 cycles
 SCF Done:  E(RM062X) =  -1394.57786094     A.U. after   12 cycles
 SCF Done:  E(RM062X) =  -1394.57786608     A.U. after   11 cycles
 SCF Done:  E(RM062X) =  -1394.57786545     A.U. after   10 cycles
 SCF Done:  E(RM062X) =  -1394.57786689     A.U. after   11 cycles
 SCF Done:  E(RM062X) =  -1394.57786687     A.U. after    9 cycles
 SCF Done:  E(RM062X) =  -1394.57786753     A.U. after   10 cycles
 SCF Done:  E(RM062X) =  -1394.57786771     A.U. after    9 cycles
 Optimization completed.
    -- Stationary point found.
 Normal termination of Gaussian 09 at Sat Mar 23 00:04:55 2019.

 ----------------------------------------------------------------------
 #N Geom=AllCheck Guess=TCheck SCRF=Check GenChk RM062X/6-31+G(d,p) Fre
 q
 ----------------------------------------------------------------------

 ncy calculation with methanol solvation
 ----------------------------------------------------------------------
 Redundant internal coordinates taken from checkpoint file:
 1b-conf-4.chk
 Charge =  0 Multiplicity = 1

                         Standard orientation:
 ---------------------------------------------------------------------
 Center     Atomic      Atomic             Coordinates (Angstroms)
 Number     Number       Type             X           Y           Z
 ---------------------------------------------------------------------
      1          8           0        1.008215   -2.230830   -1.586826
      2          6           0        1.861324   -1.451602   -0.903875
      3          6           0        1.551817   -0.126733   -0.530390
      4          6           0        0.246170    0.429178   -0.878922
      5          7           0       -0.654913   -0.193169   -1.549900
      6          6           0       -1.856281    0.656200   -1.536843
      7          6           0       -2.922831    0.029699   -0.624701
      8          8           0       -3.523090   -1.083835   -1.263817
      9          6           0       -2.379809   -0.384483    0.742217
     10          6           0       -3.494716   -0.671293    1.718946
     11          8           0       -3.118708   -1.531397    2.670811
     12          8           0       -4.596351   -0.167567    1.682537
     13          6           0       -1.292850    2.030219   -1.111823
     14          6           0       -2.128121    2.924078   -0.222201
     15          8           0       -0.051447    1.668501   -0.440469
     16          6           0        2.483687    0.642005    0.180481
     17          6           0        3.706969    0.090681    0.513159
     18         17           0        4.873922    1.044954    1.399805
     19          6           0        4.026728   -1.220878    0.151287
     20          6           0        3.108421   -1.984141   -0.552205
     21          1           0        0.178059   -1.716705   -1.764278
     22          1           0       -2.289775    0.714379   -2.539785
     23          1           0       -3.733374    0.753466   -0.488443
     24          1           0       -2.831660   -1.736718   -1.473531
     25          1           0       -1.757056    0.399959    1.192436
     26          1           0       -1.743284   -1.270046    0.649636
     27          1           0       -3.858314   -1.650689    3.303806
     28          1           0       -0.995282    2.578079   -2.014317
     29          1           0       -1.570745    3.832117    0.017796
     30          1           0       -3.039405    3.214663   -0.752600
     31          1           0       -2.411119    2.434683    0.712534
     32          1           0        2.235989    1.661060    0.461891
     33          1           0        4.992739   -1.638048    0.421158
     34          1           0        3.338937   -3.004785   -0.842366
 ---------------------------------------------------------------------

 SCF Done:  E(RM062X) =  -1394.57786771     A.U. after    1 cycles

 The electronic state is 1-A.
 Alpha  occ. eigenvalues -- -102.68020 -19.70452 -19.70099 -19.67733 -19.65690
 Alpha  occ. eigenvalues --  -19.65260 -14.77767 -10.70312 -10.67546 -10.64154
 Alpha  occ. eigenvalues --  -10.62849 -10.62324 -10.61798 -10.59895 -10.58870
 Alpha  occ. eigenvalues --  -10.58501 -10.58301 -10.57230 -10.57007 -10.55754
 Alpha  occ. eigenvalues --   -9.82675  -7.55074  -7.54418  -7.54411  -1.24724
 Alpha  occ. eigenvalues --   -1.24357  -1.19640  -1.16033  -1.15022  -1.04131
 Alpha  occ. eigenvalues --   -1.00898  -0.95416  -0.92668  -0.88949  -0.87334
 Alpha  occ. eigenvalues --   -0.83766  -0.81694  -0.77343  -0.73503  -0.71991
 Alpha  occ. eigenvalues --   -0.69545  -0.68365  -0.67691  -0.63013  -0.61698
 Alpha  occ. eigenvalues --   -0.60934  -0.59357  -0.58784  -0.57367  -0.56350
 Alpha  occ. eigenvalues --   -0.55372  -0.54520  -0.53732  -0.53323  -0.51730
 Alpha  occ. eigenvalues --   -0.51325  -0.50636  -0.49445  -0.48875  -0.48192
 Alpha  occ. eigenvalues --   -0.47063  -0.47011  -0.46107  -0.45549  -0.45356
 Alpha  occ. eigenvalues --   -0.44310  -0.43874  -0.42713  -0.40813  -0.40423
 Alpha  occ. eigenvalues --   -0.38976  -0.38780  -0.37617  -0.36923  -0.36829
 Alpha  occ. eigenvalues --   -0.34437  -0.32005  -0.28569
 Alpha virt. eigenvalues --   -0.03223   0.00620   0.00970   0.01859   0.02198
 Alpha virt. eigenvalues --    0.02316   0.03220   0.03393   0.03811   0.04095
 Alpha virt. eigenvalues --    0.04616   0.04912   0.05334   0.05699   0.06275

 Mulliken atomic charges:
              1
     1  O   -0.541753
     2  C   -0.515906
     3  C    0.064996
     4  C    0.173781
     5  N   -0.349683
     6  C    0.063010
     7  C   -0.170892
     8  O   -0.545834
     9  C   -0.263192
    10  C    0.471336
    11  O   -0.498278
    12  O   -0.489613
    13  C    0.109533
    14  C   -0.449998
    15  O   -0.315495
    16  C   -0.545786
    17  C    0.127688
    18  Cl   0.209315
    19  C   -0.458634
    20  C    0.391206
    21  H    0.456441
    22  H    0.206494
    23  H    0.191098
    24  H    0.411486
    25  H    0.225989
    26  H    0.220940
    27  H    0.443045
    28  H    0.197562
    29  H    0.187728
    30  H    0.191318
    31  H    0.173608
    32  H    0.219834
    33  H    0.208110
    34  H    0.200548
 Sum of Mulliken atomic charges =   0.00000

 Dipole moment (field-independent basis, Debye):
    X=              0.4119    Y=              1.4426    Z=              0.0267  Tot=              1.5004
 Quadrupole moment (field-independent basis, Debye-Ang):
   XX=           -147.9461   YY=           -115.7208   ZZ=           -120.1623
   XY=             -8.6292   XZ=             -4.2213   YZ=             -9.3905

  Exact polarizability: 291.343 -10.379 237.025  40.138  19.168 192.915
 Approx polarizability: 254.217  -6.401 226.951  37.982  22.430 184.029

                     1                      2                      3
                     A                      A                      A
 Frequencies --    23.5920                31.5005                34.8846
 Red. masses --     9.9852                 6.9641                 9.9781
 Frc consts  --     0.0033                 0.0041                 0.0072
 IR Inten    --     0.2645                 0.6014                 4.1518

                     4                      5                      6
                     A                      A                      A
 Frequencies --    56.9057                82.5928               101.1122
 Red. masses --     4.5728                 5.6087                 5.4973
 Frc consts  --     0.0087                 0.0225                 0.0331
 IR Inten    --     1.7040                 3.1251                 2.8706

                     7                      8                      9
                     A                      A                      A
 Frequencies --   111.4140               131.5309               172.4677
 Red. masses --     6.4686                 7.4863                 6.4260
 Frc consts  --     0.0473                 0.0763                 0.1126
 IR Inten    --     3.2018                 1.6455                 1.6895

                    10                     11                     12
                     A                      A                      A
 Frequencies --   180.7462               189.4129               235.9469
 Red. masses --     5.4088                 3.9148                 1.7524
 Frc consts  --     0.1041                 0.0828                 0.0575
 IR Inten    --     1.7100                 0.2967                 0.7465

                    13                     14                     15
                     A                      A                      A
 Frequencies --   253.4302               261.2894               283.8990
 Red. masses --     1.9667                 3.8290                 5.5671
 Frc consts  --     0.0744                 0.1540                 0.2644
 IR Inten    --     1.1935                 1.5623                 4.2657

                    16                     17                     18
                     A                      A                      A
 Frequencies --   312.4947               347.0392               358.2565
 Red. masses --     5.4320                 5.9540                 1.3692
 Frc consts  --     0.3125                 0.4225                 0.1035
 IR Inten    --     5.5813                 5.5020               140.5127

                    19                     20                     21
                     A                      A                      A
 Frequencies --   379.4281               393.7742               408.0911
 Red. masses --     5.5661                 3.8134                 3.2693
 Frc consts  --     0.4721                 0.3484                 0.3208
 IR Inten    --    35.6696                19.9623                 4.1564

                    22                     23                     24
                     A                      A                      A
 Frequencies --   434.2597               455.5726               480.6855
 Red. masses --     4.2855                 4.0944                 3.9009
 Frc consts  --     0.4762                 0.5007                 0.5310
 IR Inten    --    21.9003                15.7402                15.5682

                    25                     26                     27
                     A                      A                      A
 Frequencies --   528.6135               533.0249               550.3120
 Red. masses --     1.5005                 3.8219                 3.2452
 Frc consts  --     0.2470                 0.6398                 0.5791
 IR Inten    --    69.1941                27.7082                57.2857

                    28                     29                     30
                     A                      A                      A
 Frequencies --   554.0182               605.5906               639.2886
 Red. masses --     3.9182                 3.7079                 2.1096
 Frc consts  --     0.7086                 0.8012                 0.5080
 IR Inten    --     0.4840                19.2362               116.3795

                    31                     32                     33
                     A                      A                      A
 Frequencies --   657.6231               665.7233               703.4636
 Red. masses --     6.2083                 3.5221                 4.4683
 Frc consts  --     1.5819                 0.9197                 1.3028
 IR Inten    --     6.9034                81.6122                 1.7715

                    34                     35                     36
                     A                      A                      A
 Frequencies --   724.3224               739.8049               769.5803
 Red. masses --     5.9253                 1.1657                 4.1014
 Frc consts  --     1.8316                 0.3759                 1.4312
 IR Inten    --    87.7315               129.6805                47.0239

                    37                     38                     39
                     A                      A                      A
 Frequencies --   794.0212               850.1476               856.8199
 Red. masses --     4.1110                 1.5384                 5.6512
 Frc consts  --     1.5271                 0.6551                 2.4444
 IR Inten    --    24.6724                45.1365                 3.2592

                    40                     41                     42
                     A                      A                      A
 Frequencies --   883.2103               910.6147               920.4310
 Red. masses --     4.8860                 2.6825                 1.9125
 Frc consts  --     2.2456                 1.3106                 0.9546
 IR Inten    --    30.4475                20.1836                16.5974

                    43                     44                     45
                     A                      A                      A
 Frequencies --   923.0380               935.4545               950.4252
 Red. masses --     1.5322                 3.5457                 4.5058
 Frc consts  --     0.7692                 1.8281                 2.3980
 IR Inten    --    13.1788                 8.0022                10.3841

                    46                     47                     48
                     A                      A                      A
 Frequencies --   981.9926               986.8912              1046.0853
 Red. masses --     2.3227                 1.3293                 1.6367
 Frc consts  --     1.3196                 0.7628                 1.0553
 IR Inten    --    16.4496                 0.3963                 3.9117

                    49                     50                     51
                     A                      A                      A
 Frequencies --  1058.9655              1103.8940              1112.6959
 Red. masses --     3.3875                 2.2596                 2.8635
 Frc consts  --     2.2382                 1.6223                 2.0888
 IR Inten    --   155.7234                24.0830               136.7113

                    52                     53                     54
                     A                      A                      A
 Frequencies --  1124.3539              1130.2422              1165.4578
 Red. masses --     2.8003                 2.3287                 1.7169
 Frc consts  --     2.0857                 1.7527                 1.3740
 IR Inten    --    48.3493               175.6832                52.4786

                    55                     56                     57
                     A                      A                      A
 Frequencies --  1170.5747              1174.3454              1190.5214
 Red. masses --     1.5128                 2.1475                 2.0561
 Frc consts  --     1.2213                 1.7449                 1.7170
 IR Inten    --    87.4180               117.3074               150.3391

                    58                     59                     60
                     A                      A                      A
 Frequencies --  1207.7679              1244.6104              1256.8865
 Red. masses --     1.4131                 1.6715                 1.3889
 Frc consts  --     1.2145                 1.5255                 1.2928
 IR Inten    --    73.1648               257.7733                39.9944

                    61                     62                     63
                     A                      A                      A
 Frequencies --  1277.4851              1294.5529              1303.1571
 Red. masses --     2.0816                 1.5774                 1.4816
 Frc consts  --     2.0015                 1.5575                 1.4824
 IR Inten    --   166.1040                15.9964                24.0481

                    64                     65                     66
                     A                      A                      A
 Frequencies --  1332.5250              1345.2917              1355.3671
 Red. masses --     2.5609                 2.0188                 1.7223
 Frc consts  --     2.6791                 2.1527                 1.8641
 IR Inten    --    83.3906                19.6784                15.1322

                    67                     68                     69
                     A                      A                      A
 Frequencies --  1372.7384              1389.5909              1403.7451
 Red. masses --     1.5950                 1.6143                 1.8564
 Frc consts  --     1.7709                 1.8366                 2.1552
 IR Inten    --    70.7184                56.8286                68.7515

                    70                     71                     72
                     A                      A                      A
 Frequencies --  1426.1289              1430.9616              1442.1888
 Red. masses --     1.4368                 1.3054                 2.2811
 Frc consts  --     1.7218                 1.5749                 2.7954
 IR Inten    --    44.4368                56.6275               180.7630

                    73                     74                     75
                     A                      A                      A
 Frequencies --  1457.9050              1460.1009              1488.1287
 Red. masses --     2.4618                 1.1500                 2.4546
 Frc consts  --     3.0829                 1.4444                 3.2027
 IR Inten    --   209.4228                21.4210                 4.5829

                    76                     77                     78
                     A                      A                      A
 Frequencies --  1491.3378              1505.0330              1530.2656
 Red. masses --     1.1341                 1.0739                 3.5511
 Frc consts  --     1.4861                 1.4332                 4.8994
 IR Inten    --    20.6530                39.3185               333.1073

                    79                     80                     81
                     A                      A                      A
 Frequencies --  1646.7430              1685.1809              1723.6687
 Red. masses --     5.8015                 7.0969                 9.4695
 Frc consts  --     9.2692                11.8745                16.5762
 IR Inten    --    75.1617                82.0926               544.0078

                    82                     83                     84
                     A                      A                      A
 Frequencies --  1831.1198              3072.6903              3076.7371
 Red. masses --    10.7601                 1.0872                 1.0624
 Frc consts  --    21.2570                 6.0479                 5.9254
 IR Inten    --   600.5158                16.7922                 1.0385

                    85                     86                     87
                     A                      A                      A
 Frequencies --  3084.7559              3105.7798              3110.2555
 Red. masses --     1.0387                 1.0869                 1.0875
 Frc consts  --     5.8233                 6.1770                 6.1984
 IR Inten    --    10.0156                 8.2935                18.9404

                    88                     89                     90
                     A                      A                      A
 Frequencies --  3134.2665              3163.9781              3173.3717
 Red. masses --     1.0983                 1.1023                 1.1034
 Frc consts  --     6.3571                 6.5013                 6.5468
 IR Inten    --     5.5721                 8.9682                20.0410

                    91                     92                     93
                     A                      A                      A
 Frequencies --  3210.6828              3221.6149              3222.7129
 Red. masses --     1.0904                 1.0949                 1.0961
 Frc consts  --     6.6226                 6.6952                 6.7073
 IR Inten    --     0.6880                16.4308                 1.4588

                    94                     95                     96
                     A                      A                      A
 Frequencies --  3254.3292              3595.5841              3700.9317
 Red. masses --     1.0717                 1.0648                 1.0666
 Frc consts  --     6.6873                 8.1103                 8.6077
 IR Inten    --  1082.4777               319.7293               154.5998

 - Thermochemistry -
 -------------------
 Temperature   298.150 Kelvin.  Pressure   1.00000 Atm.
 Atom     1 has atomic number  8 and mass  15.99491

 Molecular mass:   299.05605 amu.
 Principal axes and moments of inertia in atomic units:
                           1         2         3
     Eigenvalues --  3668.80382********************
           X            0.99986  -0.01676  -0.00187
           Y            0.01646   0.99412  -0.10701
           Z            0.00365   0.10697   0.99426
 This molecule is an asymmetric top.
 Rotational symmetry number  1.
 Warning -- assumption of classical behavior for rotation
           may cause significant error
 Rotational temperatures (Kelvin)      0.02361     0.00761     0.00746
 Rotational constants (GHZ):           0.49192     0.15853     0.15537
 Zero-point vibrational energy     691992.1 (Joules/Mol)
                                  165.39008 (Kcal/Mol)
 Warning -- explicit consideration of  29 degrees of freedom as
           vibrations may cause significant error
 Vibrational temperatures:     33.94    45.32    50.19    81.87   118.83
          (Kelvin)            145.48   160.30   189.24   248.14   260.05
                              272.52   339.47   364.63   375.94   408.47
                              449.61   499.31   515.45   545.91   566.55
                              587.15   624.80   655.47   691.60   760.56
                              766.90   791.78   797.11   871.31   919.79
                              946.17   957.83  1012.13  1042.14  1064.41
                             1107.25  1142.42  1223.17  1232.77  1270.74
                             1310.17  1324.29  1328.04  1345.91  1367.45
                             1412.87  1419.91  1505.08  1523.61  1588.26
                             1600.92  1617.69  1626.16  1676.83  1684.19
                             1689.62  1712.89  1737.71  1790.71  1808.38
                             1838.01  1862.57  1874.95  1917.20  1935.57
                             1950.07  1975.06  1999.31  2019.67  2051.88
                             2058.83  2074.99  2097.60  2100.76  2141.08
                             2145.70  2165.40  2201.71  2369.29  2424.60
                             2479.97  2634.57  4420.91  4426.73  4438.27
                             4468.52  4474.96  4509.50  4552.25  4565.77
                             4619.45  4635.18  4636.76  4682.25  5173.24
                             5324.81

 Zero-point correction=                           0.263566 (Hartree/Particle)
 Thermal correction to Energy=                    0.281998
 Thermal correction to Enthalpy=                  0.282942
 Thermal correction to Gibbs Free Energy=         0.214947
 Sum of electronic and zero-point Energies=          -1394.314302
 Sum of electronic and thermal Energies=             -1394.295870
 Sum of electronic and thermal Enthalpies=           -1394.294925
 Sum of electronic and thermal Free Energies=        -1394.362920

                     E (Thermal)             CV                S
                      KCal/Mol        Cal/Mol-Kelvin    Cal/Mol-Kelvin
 Total                  176.957             69.625            143.108
 Electronic               0.000              0.000              0.000
 Translational            0.889              2.981             42.983
 Rotational               0.889              2.981             34.539
 Vibrational            175.179             63.663             65.586
 Vibration     1          0.593              1.985              6.306
 Vibration     2          0.594              1.983              5.733
 Vibration     3          0.594              1.983              5.530
 Vibration     4          0.596              1.975              4.562
 Vibration     5          0.600              1.961              3.828
 Vibration     6          0.604              1.948              3.433
 Vibration     7          0.607              1.940              3.244
 Vibration     8          0.612              1.922              2.924
 Vibration     9          0.626              1.876              2.408
 Vibration    10          0.630              1.866              2.321
 Vibration    11          0.633              1.854              2.234
 Vibration    12          0.655              1.786              1.833
 Vibration    13          0.665              1.757              1.707
 Vibration    14          0.669              1.744              1.653
 Vibration    15          0.682              1.704              1.510
 Vibration    16          0.701              1.650              1.349
 Vibration    17          0.725              1.581              1.180
 Vibration    18          0.733              1.558              1.130
 Vibration    19          0.749              1.514              1.041
 Vibration    20          0.761              1.483              0.986
 Vibration    21          0.773              1.453              0.933
 Vibration    22          0.795              1.396              0.845
 Vibration    23          0.814              1.349              0.779
 Vibration    24          0.837              1.293              0.708
 Vibration    25          0.884              1.187              0.590
 Vibration    26          0.888              1.177              0.580
 Vibration    27          0.906              1.139              0.544
 Vibration    28          0.909              1.131              0.536
 Vibration    29          0.964              1.020              0.440

 Optimization completed.
    -- Stationary point found.
 Normal termination of Gaussian 09 at Sat Mar 23 00:29:43 2019.
