 Gaussian 09, Revision B.01,
 Gaussian 09:  EM64L-G09RevB.01 12-Aug-2010

 ----------------------------------------------------------------------
 # m062x/6-31+G(d,p) opt freq=noraman integral(ultrafinegrid) scrf=(ief
 pcm,read,solvent=methanol)
 ----------------------------------------------------------------------

 Candidate Structure: 1b, Conformer: 18 geometry optimization and frequ
 ency calculation with methanol solvation
 ----------------------------------------------------------------------
 Symbolic Z-matrix:
 Charge =  0 Multiplicity = 1

 SCF Done:  E(RM062X) =  -1394.56311499     A.U. after   16 cycles
 SCF Done:  E(RM062X) =  -1394.57674745     A.U. after   14 cycles
 SCF Done:  E(RM062X) =  -1394.57780942     A.U. after   14 cycles
 SCF Done:  E(RM062X) =  -1394.57854202     A.U. after   13 cycles
 SCF Done:  E(RM062X) =  -1394.57900937     A.U. after   14 cycles
 SCF Done:  E(RM062X) =  -1394.57980348     A.U. after   13 cycles
 SCF Done:  E(RM062X) =  -1394.57978831     A.U. after   14 cycles
 SCF Done:  E(RM062X) =  -1394.58030129     A.U. after   13 cycles
 SCF Done:  E(RM062X) =  -1394.58043541     A.U. after   13 cycles
 SCF Done:  E(RM062X) =  -1394.58054617     A.U. after   13 cycles
 SCF Done:  E(RM062X) =  -1394.58059986     A.U. after   12 cycles
 SCF Done:  E(RM062X) =  -1394.58058197     A.U. after   12 cycles
 SCF Done:  E(RM062X) =  -1394.58063384     A.U. after   11 cycles
 SCF Done:  E(RM062X) =  -1394.58063461     A.U. after    9 cycles
 SCF Done:  E(RM062X) =  -1394.58063490     A.U. after    9 cycles
 SCF Done:  E(RM062X) =  -1394.58063504     A.U. after    8 cycles
 Optimization completed.
    -- Stationary point found.
 Normal termination of Gaussian 09 at Fri Mar 22 23:52:20 2019.

 ----------------------------------------------------------------------
 #N Geom=AllCheck Guess=TCheck SCRF=Check GenChk RM062X/6-31+G(d,p) Fre
 q
 ----------------------------------------------------------------------

 ency calculation with methanol solvation
 ----------------------------------------------------------------------
 Redundant internal coordinates taken from checkpoint file:
 1b-conf-18.chk
 Charge =  0 Multiplicity = 1

                         Standard orientation:
 ---------------------------------------------------------------------
 Center     Atomic      Atomic             Coordinates (Angstroms)
 Number     Number       Type             X           Y           Z
 ---------------------------------------------------------------------
      1          8           0       -0.409086    2.258245   -0.445579
      2          6           0       -1.493264    1.483157   -0.277407
      3          6           0       -1.427531    0.074442   -0.239113
      4          6           0       -0.133758   -0.590348   -0.391331
      5          7           0        0.984759    0.023031   -0.521896
      6          6           0        2.013124   -1.000529   -0.727017
      7          6           0        3.285261   -0.682589    0.049575
      8          8           0        4.232650   -1.645098   -0.375528
      9          6           0        3.765169    0.743392   -0.250805
     10          6           0        2.971101    1.774920    0.512130
     11          8           0        2.556907    2.791042   -0.253576
     12          8           0        2.747383    1.715930    1.702901
     13          6           0        1.296514   -2.322668   -0.349829
     14          6           0        1.573294   -2.867101    1.038219
     15          8           0       -0.110812   -1.934825   -0.409871
     16          6           0       -2.594625   -0.680244   -0.061086
     17          6           0       -3.809040   -0.033712    0.078100
     18         17           0       -5.267711   -0.973069    0.299482
     19          6           0       -3.889092    1.360718    0.043509
     20          6           0       -2.737039    2.110935   -0.133738
     21          1           0        0.387751    1.678439   -0.552769
     22          1           0        2.286052   -1.008138   -1.792692
     23          1           0        3.101931   -0.764590    1.128631
     24          1           0        5.001116   -1.629997    0.219856
     25          1           0        3.735647    0.948779   -1.323996
     26          1           0        4.803979    0.835944    0.088395
     27          1           0        2.086776    3.442408    0.309939
     28          1           0        1.440549   -3.091299   -1.111030
     29          1           0        1.352164   -2.115301    1.802426
     30          1           0        0.945582   -3.742022    1.220849
     31          1           0        2.622429   -3.162131    1.121479
     32          1           0       -2.533473   -1.763966   -0.033238
     33          1           0       -4.851230    1.852675    0.154627
     34          1           0       -2.778524    3.195556   -0.164417
 ---------------------------------------------------------------------

 SCF Done:  E(RM062X) =  -1394.58063504     A.U. after    1 cycles

 The electronic state is 1-A.
 Alpha  occ. eigenvalues -- -102.67979 -19.70147 -19.70078 -19.67681 -19.65996
 Alpha  occ. eigenvalues --  -19.64986 -14.77578 -10.70251 -10.67341 -10.64044
 Alpha  occ. eigenvalues --  -10.62385 -10.62263 -10.61972 -10.59799 -10.58785
 Alpha  occ. eigenvalues --  -10.58405 -10.58218 -10.56941 -10.56890 -10.54883
 Alpha  occ. eigenvalues --   -9.82634  -7.55033  -7.54377  -7.54370  -1.24596
 Alpha  occ. eigenvalues --   -1.24015  -1.19548  -1.16240  -1.14894  -1.04109
 Alpha  occ. eigenvalues --   -1.00832  -0.95312  -0.92405  -0.88976  -0.87105
 Alpha  occ. eigenvalues --   -0.83633  -0.81222  -0.77148  -0.73475  -0.71666
 Alpha  occ. eigenvalues --   -0.69649  -0.67572  -0.67011  -0.63174  -0.62896
 Alpha  occ. eigenvalues --   -0.60216  -0.58894  -0.58253  -0.57609  -0.57384
 Alpha  occ. eigenvalues --   -0.55291  -0.54372  -0.53795  -0.51819  -0.51778
 Alpha  occ. eigenvalues --   -0.51250  -0.50292  -0.48836  -0.48439  -0.48247
 Alpha  occ. eigenvalues --   -0.47052  -0.46190  -0.46049  -0.45713  -0.44967
 Alpha  occ. eigenvalues --   -0.44679  -0.43879  -0.42823  -0.40924  -0.40019
 Alpha  occ. eigenvalues --   -0.38917  -0.38728  -0.37427  -0.36953  -0.35657
 Alpha  occ. eigenvalues --   -0.34634  -0.31945  -0.28499
 Alpha virt. eigenvalues --   -0.02988   0.00890   0.01084   0.01726   0.02088
 Alpha virt. eigenvalues --    0.02594   0.02825   0.03507   0.03856   0.04546
 Alpha virt. eigenvalues --    0.04697   0.05009   0.05408   0.05702   0.06586

 Mulliken atomic charges:
              1
     1  O   -0.540149
     2  C   -0.572613
     3  C    0.181608
     4  C    0.443730
     5  N   -0.410458
     6  C   -0.053638
     7  C    0.029499
     8  O   -0.561957
     9  C   -0.172159
    10  C    0.188096
    11  O   -0.457497
    12  O   -0.421943
    13  C   -0.037063
    14  C   -0.423848
    15  O   -0.314741
    16  C   -0.514848
    17  C    0.066222
    18  Cl   0.212460
    19  C   -0.457268
    20  C    0.325051
    21  H    0.447883
    22  H    0.206765
    23  H    0.174450
    24  H    0.426233
    25  H    0.202091
    26  H    0.210891
    27  H    0.445628
    28  H    0.197636
    29  H    0.181341
    30  H    0.180647
    31  H    0.192219
    32  H    0.218987
    33  H    0.207472
    34  H    0.199276
 Sum of Mulliken atomic charges =   0.00000

 Dipole moment (field-independent basis, Debye):
    X=              4.1422    Y=             -1.0549    Z=             -0.4682  Tot=              4.3000
 Quadrupole moment (field-independent basis, Debye-Ang):
   XX=           -112.9448   YY=           -115.0788   ZZ=           -131.8527
   XY=            -11.2592   XZ=              1.0387   YZ=             -2.6800

  Exact polarizability: 304.227  -3.679 250.717 -16.914  -4.809 167.087
 Approx polarizability: 262.255   4.067 235.017 -15.482  -5.206 167.467

                     1                      2                      3
                     A                      A                      A
 Frequencies --    26.0455                42.8364                54.0277
 Red. masses --     9.2673                 5.7953                 8.3857
 Frc consts  --     0.0037                 0.0063                 0.0144
 IR Inten    --     0.0736                 0.4971                 0.6619

                     4                      5                      6
                     A                      A                      A
 Frequencies --    71.8576                79.8322               106.1230
 Red. masses --     4.0607                 8.1108                 6.9612
 Frc consts  --     0.0124                 0.0305                 0.0462
 IR Inten    --     3.1648                 2.2879                 0.8240

                     7                      8                      9
                     A                      A                      A
 Frequencies --   113.0491               136.9531               159.3436
 Red. masses --     6.4242                 7.2954                 5.1085
 Frc consts  --     0.0484                 0.0806                 0.0764
 IR Inten    --     2.6375                 2.5208                 2.2972

                    10                     11                     12
                     A                      A                      A
 Frequencies --   173.0176               193.8445               233.8093
 Red. masses --     5.6131                 5.1486                 6.6979
 Frc consts  --     0.0990                 0.1140                 0.2157
 IR Inten    --     1.9089                 3.7445                 5.0884

                    13                     14                     15
                     A                      A                      A
 Frequencies --   286.9929               295.5886               299.8888
 Red. masses --     1.9000                 6.3938                 1.5444
 Frc consts  --     0.0922                 0.3291                 0.0818
 IR Inten    --    37.4400                 5.2692                14.5382

                    16                     17                     18
                     A                      A                      A
 Frequencies --   314.4665               326.9263               348.8694
 Red. masses --     1.0915                 4.8894                 5.2828
 Frc consts  --     0.0636                 0.3079                 0.3788
 IR Inten    --   148.8106                 8.8684                 9.1888

                    19                     20                     21
                     A                      A                      A
 Frequencies --   369.6559               390.1672               399.3108
 Red. masses --     5.3982                 4.5648                 7.1444
 Frc consts  --     0.4346                 0.4094                 0.6712
 IR Inten    --     5.3284                 5.9132                 2.9137

                    22                     23                     24
                     A                      A                      A
 Frequencies --   426.7578               461.8744               467.6311
 Red. masses --     3.6458                 3.7662                 3.6275
 Frc consts  --     0.3912                 0.4734                 0.4674
 IR Inten    --    13.0479                 3.7832                 4.6410

                    25                     26                     27
                     A                      A                      A
 Frequencies --   485.8663               530.9598               550.8338
 Red. masses --     3.1476                 4.1159                 4.0189
 Frc consts  --     0.4378                 0.6837                 0.7185
 IR Inten    --     6.7247                 8.4991                 5.0710

                    28                     29                     30
                     A                      A                      A
 Frequencies --   560.2082               598.0093               645.1270
 Red. masses --     4.0275                 1.9317                 1.8583
 Frc consts  --     0.7447                 0.4070                 0.4557
 IR Inten    --    26.7316               143.7132               197.1840

                    31                     32                     33
                     A                      A                      A
 Frequencies --   658.8020               697.4177               706.5372
 Red. masses --     7.6725                 5.1144                 2.6319
 Frc consts  --     1.9620                 1.4657                 0.7741
 IR Inten    --    31.9159                 0.2121                97.8950

                    34                     35                     36
                     A                      A                      A
 Frequencies --   732.2733               752.8861               771.3513
 Red. masses --     5.4302                 1.3216                 3.4950
 Frc consts  --     1.7156                 0.4414                 1.2252
 IR Inten    --    68.0835                98.9395                60.6622

                    37                     38                     39
                     A                      A                      A
 Frequencies --   780.1589               829.1753               850.8270
 Red. masses --     3.4805                 2.9400                 1.5140
 Frc consts  --     1.2481                 1.1909                 0.6457
 IR Inten    --    10.1435                24.9289                41.6177

                    40                     41                     42
                     A                      A                      A
 Frequencies --   861.4017               917.5456               923.5922
 Red. masses --     5.8874                 2.4271                 1.4976
 Frc consts  --     2.5739                 1.2039                 0.7527
 IR Inten    --     0.9011                40.0499                16.4652

                    43                     44                     45
                     A                      A                      A
 Frequencies --   934.9719               946.5711               979.9593
 Red. masses --     3.6052                 3.8724                 2.7948
 Frc consts  --     1.8568                 2.0443                 1.5813
 IR Inten    --     8.9249                 5.7018                 8.2521

                    46                     47                     48
                     A                      A                      A
 Frequencies --   987.4304              1022.2990              1059.2980
 Red. masses --     1.3284                 2.1754                 3.0659
 Frc consts  --     0.7631                 1.3395                 2.0270
 IR Inten    --     0.3107                36.0541               177.8364

                    49                     50                     51
                     A                      A                      A
 Frequencies --  1095.0004              1098.8845              1104.2530
 Red. masses --     2.1377                 2.0089                 2.5304
 Frc consts  --     1.5102                 1.4293                 1.8179
 IR Inten    --    18.9228                26.0698                57.2103

                    52                     53                     54
                     A                      A                      A
 Frequencies --  1123.9908              1132.2380              1141.4671
 Red. masses --     2.2980                 2.2375                 2.6801
 Frc consts  --     1.7105                 1.6900                 2.0574
 IR Inten    --    22.3499               226.3391                91.0045

                    55                     56                     57
                     A                      A                      A
 Frequencies --  1158.7997              1166.9917              1183.2763
 Red. masses --     1.5343                 1.6283                 2.3896
 Frc consts  --     1.2139                 1.3065                 1.9713
 IR Inten    --    84.7528                99.4025                76.9330

                    58                     59                     60
                     A                      A                      A
 Frequencies --  1221.8198              1242.2390              1249.1298
 Red. masses --     1.4924                 1.4215                 1.4799
 Frc consts  --     1.3127                 1.2924                 1.3605
 IR Inten    --    52.4999               215.4942                85.2365

                    61                     62                     63
                     A                      A                      A
 Frequencies --  1279.4545              1288.1434              1308.5020
 Red. masses --     2.2298                 1.4405                 1.6704
 Frc consts  --     2.1506                 1.4083                 1.6851
 IR Inten    --   167.4102                 4.5386                 2.8632

                    64                     65                     66
                     A                      A                      A
 Frequencies --  1321.1939              1340.9584              1345.6653
 Red. masses --     1.4828                 2.6742                 1.5232
 Frc consts  --     1.5250                 2.8332                 1.6251
 IR Inten    --    58.2040                77.5573                 4.6112

                    67                     68                     69
                     A                      A                      A
 Frequencies --  1377.2359              1380.1298              1401.4224
 Red. masses --     1.6400                 1.4721                 2.1487
 Frc consts  --     1.8328                 1.6521                 2.4864
 IR Inten    --    12.8008                29.3304                94.3155

                    70                     71                     72
                     A                      A                      A
 Frequencies --  1417.3584              1425.1700              1449.5474
 Red. masses --     1.4131                 1.9405                 2.1831
 Frc consts  --     1.6726                 2.3222                 2.7026
 IR Inten    --    21.6443               263.9882                51.9287

                    73                     74                     75
                     A                      A                      A
 Frequencies --  1454.6133              1473.2984              1490.0367
 Red. masses --     1.8791                 1.3639                 2.5493
 Frc consts  --     2.3426                 1.7443                 3.3348
 IR Inten    --   148.2562                12.8382                10.3824

                    76                     77                     78
                     A                      A                      A
 Frequencies --  1497.0495              1499.2398              1530.5081
 Red. masses --     1.0655                 1.0671                 3.5728
 Frc consts  --     1.4069                 1.4132                 4.9309
 IR Inten    --    17.4817                19.2031               363.5223

                    79                     80                     81
                     A                      A                      A
 Frequencies --  1648.5132              1687.3453              1733.2850
 Red. masses --     5.7905                 6.9715                10.1540
 Frc consts  --     9.2716                11.6945                17.9733
 IR Inten    --    63.4294                61.2209               574.8339

                    82                     83                     84
                     A                      A                      A
 Frequencies --  1825.3021              3038.1641              3073.8622
 Red. masses --    10.6019                 1.0847                 1.0440
 Frc consts  --    20.8114                 5.8989                 5.8121
 IR Inten    --   567.9847                13.1005                 2.1282

                    85                     86                     87
                     A                      A                      A
 Frequencies --  3079.1538              3081.6337              3136.1867
 Red. masses --     1.0645                 1.0768                 1.0905
 Frc consts  --     5.9465                 6.0251                 6.3194
 IR Inten    --     3.0551                24.4750                 4.3197

                    88                     89                     90
                     A                      A                      A
 Frequencies --  3150.3319              3160.7013              3171.8104
 Red. masses --     1.1020                 1.1011                 1.1035
 Frc consts  --     6.4437                 6.4808                 6.5411
 IR Inten    --     6.8991                25.4843                 9.6396

                    91                     92                     93
                     A                      A                      A
 Frequencies --  3210.6483              3222.1850              3223.7141
 Red. masses --     1.0905                 1.0965                 1.0943
 Frc consts  --     6.6232                 6.7077                 6.7007
 IR Inten    --     0.0318                 9.8571                 6.2350

                    94                     95                     96
                     A                      A                      A
 Frequencies --  3290.3560              3591.5655              3721.2950
 Red. masses --     1.0710                 1.0646                 1.0671
 Frc consts  --     6.8314                 8.0914                 8.7062
 IR Inten    --  1044.3695               311.0870               250.9538

 - Thermochemistry -
 -------------------
 Temperature   298.150 Kelvin.  Pressure   1.00000 Atm.
 Atom     1 has atomic number  8 and mass  15.99491

 Molecular mass:   299.05605 amu.
 Principal axes and moments of inertia in atomic units:
                           1         2         3
     Eigenvalues --  3239.36477********************
           X            0.99983  -0.01832   0.00122
           Y            0.01834   0.99975  -0.01263
           Z           -0.00099   0.01266   0.99992
 This molecule is an asymmetric top.
 Rotational symmetry number  1.
 Warning -- assumption of classical behavior for rotation
           may cause significant error
 Rotational temperatures (Kelvin)      0.02674     0.00861     0.00690
 Rotational constants (GHZ):           0.55713     0.17946     0.14385
 Zero-point vibrational energy     692674.0 (Joules/Mol)
                                  165.55305 (Kcal/Mol)
 Warning -- explicit consideration of  29 degrees of freedom as
           vibrations may cause significant error
 Vibrational temperatures:     37.47    61.63    77.73   103.39   114.86
          (Kelvin)            152.69   162.65   197.04   229.26   248.93
                              278.90   336.40   412.92   425.29   431.47
                              452.45   470.37   501.94   531.85   561.36
                              574.52   614.01   664.53   672.82   699.05
                              763.93   792.53   806.01   860.40   928.19
                              947.87  1003.43  1016.55  1053.58  1083.23
                             1109.80  1122.47  1193.00  1224.15  1239.36
                             1320.14  1328.84  1345.21  1361.90  1409.94
                             1420.69  1470.86  1524.09  1575.46  1581.05
                             1588.77  1617.17  1629.04  1642.31  1667.25
                             1679.04  1702.47  1757.92  1787.30  1797.22
                             1840.85  1853.35  1882.64  1900.90  1929.34
                             1936.11  1981.53  1985.70  2016.33  2039.26
                             2050.50  2085.57  2092.86  2119.75  2143.83
                             2153.92  2157.07  2202.06  2371.84  2427.71
                             2493.81  2626.20  4371.24  4422.60  4430.21
                             4433.78  4512.27  4532.62  4547.54  4563.52
                             4619.40  4636.00  4638.20  4734.08  5167.46
                             5354.11

 Zero-point correction=                           0.263826 (Hartree/Particle)
 Thermal correction to Energy=                    0.282131
 Thermal correction to Enthalpy=                  0.283076
 Thermal correction to Gibbs Free Energy=         0.216251
 Sum of electronic and zero-point Energies=          -1394.316809
 Sum of electronic and thermal Energies=             -1394.298504
 Sum of electronic and thermal Enthalpies=           -1394.297559
 Sum of electronic and thermal Free Energies=        -1394.364384

                     E (Thermal)             CV                S
                      KCal/Mol        Cal/Mol-Kelvin    Cal/Mol-Kelvin
 Total                  177.040             69.565            140.643
 Electronic               0.000              0.000              0.000
 Translational            0.889              2.981             42.983
 Rotational               0.889              2.981             34.368
 Vibrational            175.263             63.604             63.292
 Vibration     1          0.593              1.985              6.110
 Vibration     2          0.595              1.980              5.123
 Vibration     3          0.596              1.976              4.664
 Vibration     4          0.598              1.967              4.102
 Vibration     5          0.600              1.963              3.895
 Vibration     6          0.605              1.944              3.339
 Vibration     7          0.607              1.939              3.216
 Vibration     8          0.614              1.916              2.846
 Vibration     9          0.621              1.892              2.558
 Vibration    10          0.627              1.876              2.402
 Vibration    11          0.635              1.848              2.191
 Vibration    12          0.654              1.789              1.850
 Vibration    13          0.684              1.698              1.492
 Vibration    14          0.690              1.682              1.442
 Vibration    15          0.692              1.674              1.418
 Vibration    16          0.702              1.646              1.339
 Vibration    17          0.711              1.622              1.275
 Vibration    18          0.726              1.578              1.171
 Vibration    19          0.742              1.535              1.081
 Vibration    20          0.758              1.491              1.000
 Vibration    21          0.765              1.472              0.965
 Vibration    22          0.788              1.412              0.869
 Vibration    23          0.820              1.335              0.761
 Vibration    24          0.825              1.322              0.744
 Vibration    25          0.842              1.281              0.694
 Vibration    26          0.886              1.182              0.585
 Vibration    27          0.906              1.138              0.542
 Vibration    28          0.916              1.117              0.523
 Vibration    29          0.956              1.036              0.453

 Optimization completed.
    -- Stationary point found.
 Normal termination of Gaussian 09 at Sat Mar 23 00:17:18 2019.
