 Gaussian 09, Revision B.01,
 Gaussian 09:  EM64L-G09RevB.01 12-Aug-2010

 ----------------------------------------------------------------------
 # m062x/6-31+G(d,p) opt freq=noraman integral(ultrafinegrid) scrf=(ief
 pcm,read,solvent=methanol)
 ----------------------------------------------------------------------

 Candidate Structure: 1b, Conformer: 6 geometry optimization and freque
 ncy calculation with methanol solvation
 ----------------------------------------------------------------------
 Symbolic Z-matrix:
 Charge =  0 Multiplicity = 1

 SCF Done:  E(RM062X) =  -1394.55434656     A.U. after   16 cycles
 SCF Done:  E(RM062X) =  -1394.56796849     A.U. after   14 cycles
 SCF Done:  E(RM062X) =  -1394.56884913     A.U. after   16 cycles
 SCF Done:  E(RM062X) =  -1394.57017692     A.U. after   14 cycles
 SCF Done:  E(RM062X) =  -1394.57065023     A.U. after   13 cycles
 SCF Done:  E(RM062X) =  -1394.56988580     A.U. after   13 cycles
 SCF Done:  E(RM062X) =  -1394.57086610     A.U. after   13 cycles
 SCF Done:  E(RM062X) =  -1394.57097864     A.U. after   12 cycles
 SCF Done:  E(RM062X) =  -1394.57102983     A.U. after   13 cycles
 SCF Done:  E(RM062X) =  -1394.57104454     A.U. after   12 cycles
 SCF Done:  E(RM062X) =  -1394.57105041     A.U. after   12 cycles
 SCF Done:  E(RM062X) =  -1394.57104954     A.U. after   12 cycles
 SCF Done:  E(RM062X) =  -1394.57104855     A.U. after   12 cycles
 SCF Done:  E(RM062X) =  -1394.57104866     A.U. after   10 cycles
 SCF Done:  E(RM062X) =  -1394.57104859     A.U. after    9 cycles
 SCF Done:  E(RM062X) =  -1394.57104870     A.U. after    9 cycles
 SCF Done:  E(RM062X) =  -1394.57104874     A.U. after    8 cycles
 SCF Done:  E(RM062X) =  -1394.57104871     A.U. after    8 cycles
 SCF Done:  E(RM062X) =  -1394.57104869     A.U. after    8 cycles
 Optimization completed.
    -- Stationary point found.
 Normal termination of Gaussian 09 at Sat Mar 23 00:22:47 2019.

 ----------------------------------------------------------------------
 #N Geom=AllCheck Guess=TCheck SCRF=Check GenChk RM062X/6-31+G(d,p) Fre
 q
 ----------------------------------------------------------------------

 ncy calculation with methanol solvation
 ----------------------------------------------------------------------
 Redundant internal coordinates taken from checkpoint file:
 1b-conf-6.chk
 Charge =  0 Multiplicity = 1

                         Standard orientation:
 ---------------------------------------------------------------------
 Center     Atomic      Atomic             Coordinates (Angstroms)
 Number     Number       Type             X           Y           Z
 ---------------------------------------------------------------------
      1          8           0        1.812581    2.727098    1.157794
      2          6           0        2.289329    1.539857    0.726394
      3          6           0        1.580016    0.634603   -0.085534
      4          6           0        0.212161    0.884169   -0.566829
      5          7           0       -0.406042    0.219183   -1.461079
      6          6           0       -1.779872    0.747980   -1.498422
      7          6           0       -2.740878   -0.287442   -0.894076
      8          8           0       -2.919909   -1.366646   -1.795598
      9          6           0       -2.282736   -0.818643    0.463681
     10          6           0       -3.388610   -1.566943    1.167926
     11          8           0       -2.913306   -2.485445    2.015587
     12          8           0       -4.573008   -1.355194    1.022009
     13          6           0       -1.665923    2.103166   -0.770046
     14          6           0       -2.808606    2.573112    0.102584
     15          8           0       -0.464002    1.910540    0.028946
     16          6           0        2.191665   -0.566880   -0.477856
     17          6           0        3.478857   -0.855897   -0.071247
     18         17           0        4.226013   -2.358244   -0.562573
     19          6           0        4.192696    0.036412    0.732903
     20          6           0        3.596090    1.222543    1.123903
     21          1           0        0.891155    2.858296    0.873877
     22          1           0       -2.093990    0.899934   -2.535709
     23          1           0       -3.730959    0.169085   -0.789602
     24          1           0       -2.047635   -1.749708   -1.997043
     25          1           0       -1.965460   -0.011376    1.136825
     26          1           0       -1.418669   -1.479304    0.343370
     27          1           0       -3.665421   -2.912071    2.478317
     28          1           0       -1.416312    2.877214   -1.506111
     29          1           0       -3.060857    1.851922    0.883190
     30          1           0       -2.548963    3.521595    0.578050
     31          1           0       -3.693797    2.736408   -0.518683
     32          1           0        1.632860   -1.258157   -1.101532
     33          1           0        5.204728   -0.200559    1.048401
     34          1           0        4.129416    1.933542    1.747754
 ---------------------------------------------------------------------

 SCF Done:  E(RM062X) =  -1394.57104869     A.U. after    1 cycles

 The electronic state is 1-A.
 Alpha  occ. eigenvalues -- -102.68043 -19.70872 -19.70057 -19.68504 -19.65526
 Alpha  occ. eigenvalues --  -19.65210 -14.76850 -10.70252 -10.67102 -10.64415
 Alpha  occ. eigenvalues --  -10.62858 -10.62365 -10.61640 -10.59530 -10.59089
 Alpha  occ. eigenvalues --  -10.58328 -10.58281 -10.57099 -10.57094 -10.55785
 Alpha  occ. eigenvalues --   -9.82699  -7.55098  -7.54442  -7.54434  -1.24671
 Alpha  occ. eigenvalues --   -1.24314  -1.19953  -1.15896  -1.14958  -1.03821
 Alpha  occ. eigenvalues --   -1.00853  -0.95394  -0.92557  -0.88784  -0.87423
 Alpha  occ. eigenvalues --   -0.83851  -0.81442  -0.77561  -0.73751  -0.71012
 Alpha  occ. eigenvalues --   -0.70121  -0.68447  -0.67475  -0.64078  -0.61725
 Alpha  occ. eigenvalues --   -0.59986  -0.59072  -0.58641  -0.57962  -0.56282
 Alpha  occ. eigenvalues --   -0.55248  -0.54537  -0.53439  -0.53345  -0.51915
 Alpha  occ. eigenvalues --   -0.51022  -0.50608  -0.49572  -0.48721  -0.48013
 Alpha  occ. eigenvalues --   -0.47362  -0.46938  -0.46257  -0.45570  -0.44860
 Alpha  occ. eigenvalues --   -0.44381  -0.43972  -0.42056  -0.40735  -0.40379
 Alpha  occ. eigenvalues --   -0.39241  -0.38774  -0.37428  -0.36764  -0.36497
 Alpha  occ. eigenvalues --   -0.34590  -0.31557  -0.28751
 Alpha virt. eigenvalues --   -0.03180   0.00604   0.00967   0.01784   0.01902
 Alpha virt. eigenvalues --    0.02622   0.03094   0.03388   0.03764   0.04098
 Alpha virt. eigenvalues --    0.04678   0.04834   0.05155   0.05855   0.06286

 Mulliken atomic charges:
              1
     1  O   -0.567775
     2  C   -0.753714
     3  C    0.189930
     4  C    0.269583
     5  N   -0.275409
     6  C   -0.047609
     7  C   -0.153195
     8  O   -0.544149
     9  C   -0.284606
    10  C    0.464081
    11  O   -0.499042
    12  O   -0.491500
    13  C    0.184294
    14  C   -0.437061
    15  O   -0.384778
    16  C   -0.643319
    17  C    0.286547
    18  Cl   0.206682
    19  C   -0.477175
    20  C    0.428990
    21  H    0.460882
    22  H    0.202211
    23  H    0.190038
    24  H    0.409461
    25  H    0.226593
    26  H    0.220288
    27  H    0.442469
    28  H    0.200149
    29  H    0.173434
    30  H    0.187481
    31  H    0.191703
    32  H    0.214441
    33  H    0.209269
    34  H    0.200808
 Sum of Mulliken atomic charges =   0.00000

 Dipole moment (field-independent basis, Debye):
    X=              0.2475    Y=              3.3468    Z=              1.6783  Tot=              3.7522
 Quadrupole moment (field-independent basis, Debye-Ang):
   XX=           -140.3197   YY=           -116.9162   ZZ=           -123.3285
   XY=             -5.5316   XZ=             -1.5977   YZ=             -8.8800

  Exact polarizability: 282.019 -23.714 243.652  29.476  26.117 193.323
 Approx polarizability: 246.186 -19.007 228.041  27.912  29.756 188.742

                     1                      2                      3
                     A                      A                      A
 Frequencies --    11.6328                27.3203                30.7897
 Red. masses --     8.8435                 9.8849                 7.2043
 Frc consts  --     0.0007                 0.0043                 0.0040
 IR Inten    --     0.0296                 4.3075                 0.6832

                     4                      5                      6
                     A                      A                      A
 Frequencies --    50.6631                75.0729                95.9822
 Red. masses --     4.6910                 5.9838                 5.0427
 Frc consts  --     0.0071                 0.0199                 0.0274
 IR Inten    --     2.4395                 1.5394                 0.9606

                     7                      8                      9
                     A                      A                      A
 Frequencies --   114.1302               124.4411               165.2023
 Red. masses --     5.9534                 7.9357                 6.1981
 Frc consts  --     0.0457                 0.0724                 0.0997
 IR Inten    --     1.6143                 0.3135                 3.3820

                    10                     11                     12
                     A                      A                      A
 Frequencies --   176.1261               193.4183               214.4018
 Red. masses --     5.2692                 3.8233                 3.5657
 Frc consts  --     0.0963                 0.0843                 0.0966
 IR Inten    --     0.7817                 0.2853                 1.9366

                    13                     14                     15
                     A                      A                      A
 Frequencies --   242.5551               267.6874               280.7828
 Red. masses --     1.2282                 6.7792                 4.1564
 Frc consts  --     0.0426                 0.2862                 0.1931
 IR Inten    --     0.1938                 2.2161                 3.8337

                    16                     17                     18
                     A                      A                      A
 Frequencies --   336.5291               346.9408               353.6432
 Red. masses --     5.6890                 6.1683                 3.2974
 Frc consts  --     0.3796                 0.4374                 0.2430
 IR Inten    --     2.5591                 3.8427                48.1194

                    19                     20                     21
                     A                      A                      A
 Frequencies --   385.8180               400.1469               403.5505
 Red. masses --     3.5726                 2.2366                 2.1797
 Frc consts  --     0.3133                 0.2110                 0.2091
 IR Inten    --    43.9059                70.9517                52.0978

                    22                     23                     24
                     A                      A                      A
 Frequencies --   428.2384               461.1450               482.0723
 Red. masses --     3.8347                 4.0969                 1.1032
 Frc consts  --     0.4143                 0.5133                 0.1511
 IR Inten    --     6.1975                37.7142               183.9785

                    25                     26                     27
                     A                      A                      A
 Frequencies --   485.5804               530.6633               535.5369
 Red. masses --     3.5537                 2.1239                 2.2266
 Frc consts  --     0.4937                 0.3524                 0.3762
 IR Inten    --     5.0025                32.2791                48.0029

                    28                     29                     30
                     A                      A                      A
 Frequencies --   540.8839               557.1764               609.1696
 Red. masses --     3.5525                 4.0578                 3.5919
 Frc consts  --     0.6123                 0.7422                 0.7853
 IR Inten    --    30.4733                36.5241                11.0365

                    31                     32                     33
                     A                      A                      A
 Frequencies --   641.4685               662.4443               664.8354
 Red. masses --     2.1313                 6.9761                 2.9978
 Frc consts  --     0.5167                 1.8037                 0.7807
 IR Inten    --   118.3556                16.8149                77.4588

                    34                     35                     36
                     A                      A                      A
 Frequencies --   701.3207               717.8234               758.8639
 Red. masses --     5.3182                 6.1068                 4.4868
 Frc consts  --     1.5411                 1.8539                 1.5223
 IR Inten    --    13.2631                59.9546                13.0872

                    37                     38                     39
                     A                      A                      A
 Frequencies --   786.1849               849.6190               858.2397
 Red. masses --     4.5001                 1.5439                 5.8175
 Frc consts  --     1.6388                 0.6566                 2.5247
 IR Inten    --    31.2744                53.9373                 0.7697

                    40                     41                     42
                     A                      A                      A
 Frequencies --   884.7973               911.6380               920.0608
 Red. masses --     4.5779                 2.6834                 2.0329
 Frc consts  --     2.1116                 1.3140                 1.0139
 IR Inten    --    40.8392                39.3974                18.2869

                    43                     44                     45
                     A                      A                      A
 Frequencies --   927.9550               934.7860               943.3325
 Red. masses --     1.4961                 3.3820                 7.4642
 Frc consts  --     0.7590                 1.7412                 3.9135
 IR Inten    --    16.6844                 8.0579                65.9066

                    46                     47                     48
                     A                      A                      A
 Frequencies --   975.2267               988.2026              1045.3537
 Red. masses --     1.9955                 1.3305                 1.6934
 Frc consts  --     1.1182                 0.7655                 1.0903
 IR Inten    --    10.5387                 0.7243                 1.7927

                    49                     50                     51
                     A                      A                      A
 Frequencies --  1053.4965              1107.0394              1109.6853
 Red. masses --     3.2200                 2.4078                 3.0503
 Frc consts  --     2.1056                 1.7386                 2.2131
 IR Inten    --   111.5371                 9.2859               150.2035

                    52                     53                     54
                     A                      A                      A
 Frequencies --  1123.6618              1125.8070              1153.9364
 Red. masses --     2.7801                 2.4829                 1.4755
 Frc consts  --     2.0681                 1.8542                 1.1576
 IR Inten    --    50.3292               144.6777                33.7518

                    55                     56                     57
                     A                      A                      A
 Frequencies --  1168.2457              1172.8554              1190.1250
 Red. masses --     1.5655                 2.1801                 1.9891
 Frc consts  --     1.2588                 1.7669                 1.6599
 IR Inten    --   136.2147               133.4070                95.8476

                    58                     59                     60
                     A                      A                      A
 Frequencies --  1206.9963              1211.6102              1256.5420
 Red. masses --     1.4115                 1.5597                 1.4138
 Frc consts  --     1.2116                 1.3490                 1.3152
 IR Inten    --   130.6599                96.6938                80.8741

                    61                     62                     63
                     A                      A                      A
 Frequencies --  1269.7293              1289.1282              1301.9274
 Red. masses --     2.1084                 1.7832                 1.4937
 Frc consts  --     2.0028                 1.7460                 1.4917
 IR Inten    --    91.8511               170.2197                22.7439

                    64                     65                     66
                     A                      A                      A
 Frequencies --  1318.9355              1343.8628              1348.2483
 Red. masses --     2.0347                 1.8508                 1.6486
 Frc consts  --     2.0854                 1.9693                 1.7656
 IR Inten    --   208.0137                14.8560                33.9273

                    67                     68                     69
                     A                      A                      A
 Frequencies --  1366.5670              1373.0340              1383.2769
 Red. masses --     2.4997                 1.6612                 1.7442
 Frc consts  --     2.7504                 1.8452                 1.9664
 IR Inten    --    61.9153                90.2902                30.4420

                    70                     71                     72
                     A                      A                      A
 Frequencies --  1402.2278              1429.2222              1431.4338
 Red. masses --     1.5585                 1.4979                 1.2721
 Frc consts  --     1.8055                 1.8028                 1.5357
 IR Inten    --     9.1271                17.0792                72.8388

                    73                     74                     75
                     A                      A                      A
 Frequencies --  1441.2502              1461.5581              1491.0501
 Red. masses --     2.3464                 1.1192                 1.0759
 Frc consts  --     2.8717                 1.4087                 1.4093
 IR Inten    --   186.2884                26.4330                13.2260

                    76                     77                     78
                     A                      A                      A
 Frequencies --  1494.7069              1506.0567              1523.6291
 Red. masses --     3.2322                 1.1637                 3.2494
 Frc consts  --     4.2547                 1.5552                 4.4444
 IR Inten    --    89.6324                38.7341               376.9808

                    79                     80                     81
                     A                      A                      A
 Frequencies --  1648.6356              1694.0291              1738.2679
 Red. masses --     6.9523                 7.0856                11.0238
 Frc consts  --    11.1333                11.9803                19.6252
 IR Inten    --    35.2142                58.0025               509.8043

                    82                     83                     84
                     A                      A                      A
 Frequencies --  1830.8187              3071.5090              3078.8814
 Red. masses --    10.7563                 1.0874                 1.0607
 Frc consts  --    21.2425                 6.0444                 5.9240
 IR Inten    --   598.6466                16.5518                 1.0484

                    85                     86                     87
                     A                      A                      A
 Frequencies --  3085.7214              3102.9066              3107.6325
 Red. masses --     1.0399                 1.0868                 1.0874
 Frc consts  --     5.8339                 6.1648                 6.1871
 IR Inten    --    10.0152                 7.9479                17.9960

                    88                     89                     90
                     A                      A                      A
 Frequencies --  3135.9372              3163.9118              3174.0518
 Red. masses --     1.0987                 1.1023                 1.1033
 Frc consts  --     6.3659                 6.5013                 6.5489
 IR Inten    --     4.2503                 8.8744                19.8119

                    91                     92                     93
                     A                      A                      A
 Frequencies --  3211.2598              3222.6890              3223.9928
 Red. masses --     1.0905                 1.0962                 1.0946
 Frc consts  --     6.6257                 6.7076                 6.7037
 IR Inten    --     0.4745                13.2209                 5.1295

                    94                     95                     96
                     A                      A                      A
 Frequencies --  3598.2397              3702.1118              3711.4457
 Red. masses --     1.0647                 1.0666                 1.0660
 Frc consts  --     8.1223                 8.6126                 8.6517
 IR Inten    --   318.7240               134.9990               618.6745

 - Thermochemistry -
 -------------------
 Temperature   298.150 Kelvin.  Pressure   1.00000 Atm.
 Atom     1 has atomic number  8 and mass  15.99491

 Molecular mass:   299.05605 amu.
 Principal axes and moments of inertia in atomic units:
                           1         2         3
     Eigenvalues --  4152.63206********************
           X            0.99998   0.00100   0.00642
           Y           -0.00097   0.99998  -0.00559
           Z           -0.00643   0.00559   0.99996
 This molecule is an asymmetric top.
 Rotational symmetry number  1.
 Warning -- assumption of classical behavior for rotation
           may cause significant error
 Rotational temperatures (Kelvin)      0.02086     0.00851     0.00720
 Rotational constants (GHZ):           0.43460     0.17728     0.14994
 Zero-point vibrational energy     691784.5 (Joules/Mol)
                                  165.34047 (Kcal/Mol)
 Warning -- explicit consideration of  30 degrees of freedom as
           vibrations may cause significant error
 Vibrational temperatures:     16.74    39.31    44.30    72.89   108.01
          (Kelvin)            138.10   164.21   179.04   237.69   253.41
                              278.29   308.48   348.98   385.14   403.98
                              484.19   499.17   508.81   555.11   575.72
                              580.62   616.14   663.48   693.59   698.64
                              763.51   770.52   778.21   801.65   876.46
                              922.93   953.11   956.55  1009.04  1032.79
                             1091.83  1131.14  1222.41  1234.81  1273.02
                             1311.64  1323.76  1335.12  1344.95  1357.24
                             1403.13  1421.80  1504.03  1515.74  1592.78
                             1596.59  1616.70  1619.78  1660.26  1680.84
                             1687.48  1712.32  1736.60  1743.23  1807.88
                             1826.86  1854.77  1873.18  1897.65  1933.52
                             1939.83  1966.18  1975.49  1990.22  2017.49
                             2056.33  2059.51  2073.64  2102.85  2145.29
                             2150.55  2166.88  2192.16  2372.02  2437.33
                             2500.98  2634.14  4419.21  4429.82  4439.66
                             4464.38  4471.18  4511.91  4552.16  4566.75
                             4620.28  4636.72  4638.60  5177.06  5326.51
                             5339.94

 Zero-point correction=                           0.263487 (Hartree/Particle)
 Thermal correction to Energy=                    0.282185
 Thermal correction to Enthalpy=                  0.283129
 Thermal correction to Gibbs Free Energy=         0.213606
 Sum of electronic and zero-point Energies=          -1394.307562
 Sum of electronic and thermal Energies=             -1394.288864
 Sum of electronic and thermal Enthalpies=           -1394.287919
 Sum of electronic and thermal Free Energies=        -1394.357442

                     E (Thermal)             CV                S
                      KCal/Mol        Cal/Mol-Kelvin    Cal/Mol-Kelvin
 Total                  177.074             70.294            146.324
 Electronic               0.000              0.000              0.000
 Translational            0.889              2.981             42.983
 Rotational               0.889              2.981             34.586
 Vibrational            175.296             64.332             68.754
 Vibration     1          0.593              1.987              7.711
 Vibration     2          0.593              1.984              6.015
 Vibration     3          0.594              1.984              5.778
 Vibration     4          0.595              1.977              4.791
 Vibration     5          0.599              1.966              4.016
 Vibration     6          0.603              1.952              3.534
 Vibration     7          0.607              1.938              3.197
 Vibration     8          0.610              1.929              3.030
 Vibration     9          0.624              1.885              2.489
 Vibration    10          0.628              1.872              2.369
 Vibration    11          0.635              1.849              2.195
 Vibration    12          0.644              1.819              2.006
 Vibration    13          0.659              1.775              1.784
 Vibration    14          0.673              1.732              1.611
 Vibration    15          0.680              1.709              1.529
 Vibration    16          0.717              1.603              1.229
 Vibration    17          0.725              1.581              1.180
 Vibration    18          0.730              1.568              1.150
 Vibration    19          0.754              1.500              1.016
 Vibration    20          0.766              1.470              0.962
 Vibration    21          0.769              1.462              0.950
 Vibration    22          0.790              1.409              0.864
 Vibration    23          0.819              1.336              0.763
 Vibration    24          0.838              1.290              0.704
 Vibration    25          0.842              1.282              0.695
 Vibration    26          0.886              1.182              0.586
 Vibration    27          0.891              1.171              0.575
 Vibration    28          0.896              1.160              0.563
 Vibration    29          0.913              1.124              0.530
 Vibration    30          0.968              1.012              0.434

 Optimization completed.
    -- Stationary point found.
 Normal termination of Gaussian 09 at Sat Mar 23 00:47:12 2019.
