 Gaussian 09, Revision B.01,
 Gaussian 09:  EM64L-G09RevB.01 12-Aug-2010

 ----------------------------------------------------------------------
 # m062x/6-31+G(d,p) opt freq=noraman integral(ultrafinegrid) scrf=(ief
 pcm,read,solvent=methanol)
 ----------------------------------------------------------------------

 Candidate Structure: 1b, Conformer: 17 geometry optimization and frequ
 ency calculation with methanol solvation
 ----------------------------------------------------------------------
 Symbolic Z-matrix:
 Charge =  0 Multiplicity = 1

 SCF Done:  E(RM062X) =  -1394.55963989     A.U. after   15 cycles
 SCF Done:  E(RM062X) =  -1394.57219734     A.U. after   14 cycles
 SCF Done:  E(RM062X) =  -1394.57281864     A.U. after   14 cycles
 SCF Done:  E(RM062X) =  -1394.57228946     A.U. after   13 cycles
 SCF Done:  E(RM062X) =  -1394.57330676     A.U. after   13 cycles
 SCF Done:  E(RM062X) =  -1394.57355624     A.U. after   13 cycles
 SCF Done:  E(RM062X) =  -1394.57371049     A.U. after   12 cycles
 SCF Done:  E(RM062X) =  -1394.57379078     A.U. after   11 cycles
 SCF Done:  E(RM062X) =  -1394.57380344     A.U. after   11 cycles
 SCF Done:  E(RM062X) =  -1394.57380183     A.U. after   12 cycles
 SCF Done:  E(RM062X) =  -1394.57381212     A.U. after   11 cycles
 SCF Done:  E(RM062X) =  -1394.57381278     A.U. after   10 cycles
 SCF Done:  E(RM062X) =  -1394.57381311     A.U. after   10 cycles
 SCF Done:  E(RM062X) =  -1394.57381327     A.U. after    9 cycles
 SCF Done:  E(RM062X) =  -1394.57381326     A.U. after    8 cycles
 Optimization completed.
    -- Stationary point found.
 Normal termination of Gaussian 09 at Fri Mar 22 23:42:10 2019.

 ----------------------------------------------------------------------
 #N Geom=AllCheck Guess=TCheck SCRF=Check GenChk RM062X/6-31+G(d,p) Fre
 q
 ----------------------------------------------------------------------

 ency calculation with methanol solvation
 ----------------------------------------------------------------------
 Redundant internal coordinates taken from checkpoint file:
 1b-conf-17.chk
 Charge =  0 Multiplicity = 1

                         Standard orientation:
 ---------------------------------------------------------------------
 Center     Atomic      Atomic             Coordinates (Angstroms)
 Number     Number       Type             X           Y           Z
 ---------------------------------------------------------------------
      1          8           0       -2.491191   -2.807429   -0.517103
      2          6           0       -2.752581   -1.498903   -0.311977
      3          6           0       -1.775193   -0.497178   -0.162271
      4          6           0       -0.327698   -0.764209   -0.205994
      5          7           0        0.597719    0.075228    0.038357
      6          6           0        1.866373   -0.619742   -0.220449
      7          6           0        2.935641   -0.256059    0.811800
      8          8           0        4.127439   -0.979714    0.558897
      9          6           0        3.177302    1.251553    0.896054
     10          6           0        3.735532    1.849711   -0.369995
     11          8           0        3.646251    3.179736   -0.386129
     12          8           0        4.239882    1.213860   -1.276407
     13          6           0        1.479850   -2.117578   -0.259962
     14          6           0        1.648253   -2.894765    1.031922
     15          8           0        0.051625   -2.027907   -0.553677
     16          6           0       -2.177984    0.831054    0.050103
     17          6           0       -3.519621    1.149528    0.113540
     18         17           0       -4.004054    2.809167    0.376808
     19          6           0       -4.497910    0.162622   -0.033010
     20          6           0       -4.108903   -1.148552   -0.244307
     21          1           0       -1.532483   -2.967949   -0.563767
     22          1           0        2.226460   -0.308708   -1.211685
     23          1           0        2.592052   -0.579156    1.800453
     24          1           0        4.498641   -0.662245   -0.281874
     25          1           0        3.905603    1.456443    1.690422
     26          1           0        2.253886    1.774269    1.158233
     27          1           0        4.057067    3.520027   -1.209780
     28          1           0        1.939327   -2.639166   -1.101074
     29          1           0        1.119157   -2.402189    1.854025
     30          1           0        1.241151   -3.901351    0.911446
     31          1           0        2.708412   -2.969590    1.285311
     32          1           0       -1.415735    1.596162    0.161054
     33          1           0       -5.551178    0.423311    0.017038
     34          1           0       -4.847900   -1.935560   -0.361395
 ---------------------------------------------------------------------

 SCF Done:  E(RM062X) =  -1394.57381326     A.U. after    1 cycles

 The electronic state is 1-A.
 Alpha  occ. eigenvalues -- -102.67989 -19.70524 -19.70400 -19.68366 -19.65854
 Alpha  occ. eigenvalues --  -19.65278 -14.76522 -10.70757 -10.66783 -10.64284
 Alpha  occ. eigenvalues --  -10.62319 -10.62274 -10.61636 -10.59203 -10.58958
 Alpha  occ. eigenvalues --  -10.58187 -10.58180 -10.57000 -10.56973 -10.54761
 Alpha  occ. eigenvalues --   -9.82645  -7.55043  -7.54389  -7.54380  -1.25188
 Alpha  occ. eigenvalues --   -1.23899  -1.19820  -1.16227  -1.14991  -1.03589
 Alpha  occ. eigenvalues --   -1.00750  -0.95234  -0.92073  -0.88917  -0.87132
 Alpha  occ. eigenvalues --   -0.83718  -0.80886  -0.77544  -0.73746  -0.71112
 Alpha  occ. eigenvalues --   -0.70052  -0.68296  -0.67216  -0.63498  -0.61000
 Alpha  occ. eigenvalues --   -0.60071  -0.58901  -0.58805  -0.57966  -0.56245
 Alpha  occ. eigenvalues --   -0.55197  -0.54695  -0.53616  -0.52799  -0.52128
 Alpha  occ. eigenvalues --   -0.51193  -0.50840  -0.49485  -0.48301  -0.47785
 Alpha  occ. eigenvalues --   -0.46549  -0.46315  -0.46116  -0.45776  -0.45044
 Alpha  occ. eigenvalues --   -0.44451  -0.43000  -0.41651  -0.41391  -0.40869
 Alpha  occ. eigenvalues --   -0.39176  -0.38726  -0.37347  -0.36661  -0.35828
 Alpha  occ. eigenvalues --   -0.34614  -0.31265  -0.28607
 Alpha virt. eigenvalues --   -0.02978   0.00678   0.01122   0.01754   0.01879
 Alpha virt. eigenvalues --    0.02253   0.03105   0.03279   0.03835   0.04067
 Alpha virt. eigenvalues --    0.04613   0.04790   0.05500   0.05928   0.06155

 Mulliken atomic charges:
              1
     1  O   -0.567148
     2  C   -0.869751
     3  C    0.305775
     4  C    0.419327
     5  N   -0.261992
     6  C   -0.039260
     7  C    0.129885
     8  O   -0.527892
     9  C   -0.448344
    10  C    0.523711
    11  O   -0.462423
    12  O   -0.507313
    13  C   -0.175198
    14  C   -0.372457
    15  O   -0.406318
    16  C   -0.638965
    17  C    0.303782
    18  Cl   0.204262
    19  C   -0.507190
    20  C    0.385222
    21  H    0.460921
    22  H    0.205853
    23  H    0.165300
    24  H    0.412525
    25  H    0.226060
    26  H    0.222963
    27  H    0.437871
    28  H    0.199505
    29  H    0.179902
    30  H    0.178485
    31  H    0.198940
    32  H    0.215610
    33  H    0.208456
    34  H    0.199896
 Sum of Mulliken atomic charges =   0.00000

 Dipole moment (field-independent basis, Debye):
    X=              1.8645    Y=             -0.4375    Z=             -0.2439  Tot=              1.9306
 Quadrupole moment (field-independent basis, Debye-Ang):
   XX=           -123.7799   YY=           -119.7220   ZZ=           -124.5991
   XY=             11.3933   XZ=             -1.6181   YZ=             -2.7388

  Exact polarizability: 284.445  -8.954 268.517  -5.218  14.542 164.606
 Approx polarizability: 246.825  -4.072 250.678  -5.279  17.648 163.971

                     1                      2                      3
                     A                      A                      A
 Frequencies --    23.0658                31.4439                52.9281
 Red. masses --     7.0407                 7.7766                 9.4622
 Frc consts  --     0.0022                 0.0045                 0.0156
 IR Inten    --     0.0848                 1.3266                 1.6448

                     4                      5                      6
                     A                      A                      A
 Frequencies --    63.3856                82.8636                98.9478
 Red. masses --     5.7203                 4.5469                 6.0967
 Frc consts  --     0.0135                 0.0184                 0.0352
 IR Inten    --     0.5162                 0.8672                 4.4151

                     7                      8                      9
                     A                      A                      A
 Frequencies --   118.2672               121.9975               169.9908
 Red. masses --     8.0739                 7.6208                 4.5029
 Frc consts  --     0.0665                 0.0668                 0.0767
 IR Inten    --     1.5452                 1.0547                 1.9282

                    10                     11                     12
                     A                      A                      A
 Frequencies --   181.9373               210.1729               246.1857
 Red. masses --     5.1865                 5.9255                 5.4104
 Frc consts  --     0.1011                 0.1542                 0.1932
 IR Inten    --     3.3794                 6.1430                 0.3341

                    13                     14                     15
                     A                      A                      A
 Frequencies --   269.2469               285.7673               298.7650
 Red. masses --     4.2851                 2.1948                 1.4797
 Frc consts  --     0.1830                 0.1056                 0.0778
 IR Inten    --     3.1842                 3.0855                 0.8276

                    16                     17                     18
                     A                      A                      A
 Frequencies --   333.4124               349.9013               361.2985
 Red. masses --     5.8399                 6.0251                 3.8095
 Frc consts  --     0.3825                 0.4346                 0.2930
 IR Inten    --     1.1017                 9.3807                 5.1359

                    19                     20                     21
                     A                      A                      A
 Frequencies --   365.7102               389.8218               431.6608
 Red. masses --     5.8411                 9.1956                 3.7700
 Frc consts  --     0.4603                 0.8233                 0.4139
 IR Inten    --     5.9370                 4.1600                 4.5229

                    22                     23                     24
                     A                      A                      A
 Frequencies --   453.2851               462.0537               484.5474
 Red. masses --     1.1622                 3.0002                 3.4303
 Frc consts  --     0.1407                 0.3774                 0.4745
 IR Inten    --   225.3524                 1.3397                12.1581

                    25                     26                     27
                     A                      A                      A
 Frequencies --   494.6662               509.0892               513.8075
 Red. masses --     3.2078                 1.0851                 1.6503
 Frc consts  --     0.4625                 0.1657                 0.2567
 IR Inten    --    26.4427               164.8777                36.4522

                    28                     29                     30
                     A                      A                      A
 Frequencies --   548.1452               570.4630               584.2514
 Red. masses --     3.5906                 3.9729                 4.2736
 Frc consts  --     0.6356                 0.7617                 0.8595
 IR Inten    --    33.0338                76.2554                76.6481

                    31                     32                     33
                     A                      A                      A
 Frequencies --   631.5368               662.5251               699.6221
 Red. masses --     1.6438                 7.7543                 5.4619
 Frc consts  --     0.3863                 2.0054                 1.5751
 IR Inten    --   152.8641                32.7073                 7.5800

                    34                     35                     36
                     A                      A                      A
 Frequencies --   720.4140               729.1427               762.2389
 Red. masses --     7.1047                 4.7695                 5.3752
 Frc consts  --     2.1725                 1.4940                 1.8400
 IR Inten    --    73.7893                 3.2643                10.4635

                    37                     38                     39
                     A                      A                      A
 Frequencies --   772.6169               840.5067               850.8061
 Red. masses --     2.8907                 3.4092                 1.5261
 Frc consts  --     1.0167                 1.4190                 0.6509
 IR Inten    --    11.2733                14.3083                51.2652

                    40                     41                     42
                     A                      A                      A
 Frequencies --   860.3030               881.5845               923.1112
 Red. masses --     6.2713                 3.4581                 2.6950
 Frc consts  --     2.7347                 1.5835                 1.3530
 IR Inten    --     2.8131                21.7806                64.0058

                    43                     44                     45
                     A                      A                      A
 Frequencies --   931.4993               938.5845               961.3464
 Red. masses --     1.4580                 4.5737                 2.8991
 Frc consts  --     0.7454                 2.3739                 1.5786
 IR Inten    --    13.4331                60.9653                42.6045

                    46                     47                     48
                     A                      A                      A
 Frequencies --   984.1987               989.4737              1039.7402
 Red. masses --     2.3127                 1.3286                 2.7074
 Frc consts  --     1.3199                 0.7664                 1.7244
 IR Inten    --     2.5091                 0.8093               130.7369

                    49                     50                     51
                     A                      A                      A
 Frequencies --  1072.6999              1094.6884              1109.1824
 Red. masses --     1.9036                 2.5765                 2.5133
 Frc consts  --     1.2906                 1.8191                 1.8218
 IR Inten    --    21.0570                32.0415                21.9297

                    52                     53                     54
                     A                      A                      A
 Frequencies --  1124.7248              1132.2585              1148.1877
 Red. masses --     2.1102                 2.2876                 1.8252
 Frc consts  --     1.5728                 1.7279                 1.4177
 IR Inten    --     6.2486               280.3927                91.6235

                    55                     56                     57
                     A                      A                      A
 Frequencies --  1153.5796              1170.0153              1190.9373
 Red. masses --     1.4918                 2.0422                 2.3054
 Frc consts  --     1.1696                 1.6472                 1.9265
 IR Inten    --    14.1623                88.4877               261.9772

                    58                     59                     60
                     A                      A                      A
 Frequencies --  1211.5393              1240.9594              1262.4356
 Red. masses --     1.5724                 1.4495                 1.3588
 Frc consts  --     1.3598                 1.3151                 1.2759
 IR Inten    --   156.0355                22.4447                47.0957

                    61                     62                     63
                     A                      A                      A
 Frequencies --  1272.1158              1293.1398              1300.0073
 Red. masses --     2.0076                 1.5761                 2.1807
 Frc consts  --     1.9142                 1.5528                 2.1714
 IR Inten    --    73.3022                46.8803               244.4945

                    64                     65                     66
                     A                      A                      A
 Frequencies --  1326.3403              1340.5756              1341.9162
 Red. masses --     1.5719                 1.5467                 1.8735
 Frc consts  --     1.6292                 1.6378                 1.9877
 IR Inten    --    20.9121                50.4512                49.8092

                    67                     68                     69
                     A                      A                      A
 Frequencies --  1355.7475              1373.5638              1383.3487
 Red. masses --     1.9108                 1.9826                 2.0687
 Frc consts  --     2.0693                 2.2039                 2.3324
 IR Inten    --   217.4766                17.9689                 3.7839

                    70                     71                     72
                     A                      A                      A
 Frequencies --  1413.5001              1421.2048              1426.1499
 Red. masses --     1.4777                 1.3766                 1.4890
 Frc consts  --     1.7395                 1.6382                 1.7843
 IR Inten    --    40.2634               118.9277                63.4988

                    73                     74                     75
                     A                      A                      A
 Frequencies --  1429.3679              1460.5529              1492.7850
 Red. masses --     1.4230                 1.7697                 2.1778
 Frc consts  --     1.7129                 2.2243                 2.8593
 IR Inten    --    70.6839               102.4973                58.9784

                    76                     77                     78
                     A                      A                      A
 Frequencies --  1497.5750              1499.3596              1525.5884
 Red. masses --     1.2793                 1.1507                 3.2446
 Frc consts  --     1.6904                 1.5241                 4.4493
 IR Inten    --    39.6498                41.8753               372.9946

                    79                     80                     81
                     A                      A                      A
 Frequencies --  1651.0315              1694.7899              1744.1658
 Red. masses --     6.9850                 7.0697                11.2492
 Frc consts  --    11.2184                11.9641                20.1627
 IR Inten    --    36.2668                53.6043               517.0437

                    82                     83                     84
                     A                      A                      A
 Frequencies --  1811.9569              3050.3406              3075.1663
 Red. masses --    10.2369                 1.0845                 1.0373
 Frc consts  --    19.8023                 5.9452                 5.7798
 IR Inten    --   526.1336                 6.3198                 6.1023

                    85                     86                     87
                     A                      A                      A
 Frequencies --  3082.1431              3102.0870              3138.0423
 Red. masses --     1.0673                 1.0861                 1.0910
 Frc consts  --     5.9738                 6.1579                 6.3297
 IR Inten    --     8.6216                21.3902                 4.0005

                    88                     89                     90
                     A                      A                      A
 Frequencies --  3152.8444              3160.0168              3174.2703
 Red. masses --     1.0967                 1.1009                 1.1034
 Frc consts  --     6.4228                 6.4771                 6.5503
 IR Inten    --     0.0810                26.2603                 6.1114

                    91                     92                     93
                     A                      A                      A
 Frequencies --  3211.4096              3222.7704              3225.1077
 Red. masses --     1.0903                 1.0973                 1.0936
 Frc consts  --     6.6252                 6.7146                 6.7022
 IR Inten    --     0.2845                 8.0612                 9.9032

                    94                     95                     96
                     A                      A                      A
 Frequencies --  3588.4369              3706.0655              3748.4618
 Red. masses --     1.0648                 1.0661                 1.0653
 Frc consts  --     8.0786                 8.6270                 8.8196
 IR Inten    --   330.7497               624.1104               211.9375

 - Thermochemistry -
 -------------------
 Temperature   298.150 Kelvin.  Pressure   1.00000 Atm.
 Atom     1 has atomic number  8 and mass  15.99491

 Molecular mass:   299.05605 amu.
 Principal axes and moments of inertia in atomic units:
                           1         2         3
     Eigenvalues --  4063.09972********************
           X            0.99994   0.00979   0.00483
           Y           -0.00975   0.99992  -0.00809
           Z           -0.00490   0.00804   0.99996
 This molecule is an asymmetric top.
 Rotational symmetry number  1.
 Warning -- assumption of classical behavior for rotation
           may cause significant error
 Rotational temperatures (Kelvin)      0.02132     0.00821     0.00624
 Rotational constants (GHZ):           0.44418     0.17104     0.12996
 Zero-point vibrational energy     693173.0 (Joules/Mol)
                                  165.67233 (Kcal/Mol)
 Warning -- explicit consideration of  30 degrees of freedom as
           vibrations may cause significant error
 Vibrational temperatures:     33.19    45.24    76.15    91.20   119.22
          (Kelvin)            142.36   170.16   175.53   244.58   261.77
                              302.39   354.21   387.39   411.15   429.86
                              479.71   503.43   519.83   526.17   560.87
                              621.06   652.18   664.79   697.15   711.71
                              732.46   739.25   788.66   820.77   840.61
                              908.64   953.22  1006.60  1036.51  1049.07
                             1096.69  1111.62  1209.30  1224.12  1237.78
                             1268.40  1328.15  1340.22  1350.41  1383.16
                             1416.04  1423.63  1495.95  1543.37  1575.01
                             1595.86  1618.23  1629.07  1651.98  1659.74
                             1683.39  1713.49  1743.13  1785.46  1816.36
                             1830.29  1860.54  1870.42  1908.31  1928.79
                             1930.72  1950.62  1976.25  1990.33  2033.71
                             2044.79  2051.91  2056.54  2101.41  2147.78
                             2154.67  2157.24  2194.98  2375.46  2438.42
                             2509.46  2607.00  4388.75  4424.47  4434.51
                             4463.21  4514.94  4536.23  4546.55  4567.06
                             4620.50  4636.84  4640.20  5162.95  5332.19
                             5393.19

 Zero-point correction=                           0.264016 (Hartree/Particle)
 Thermal correction to Energy=                    0.282394
 Thermal correction to Enthalpy=                  0.283338
 Thermal correction to Gibbs Free Energy=         0.215833
 Sum of electronic and zero-point Energies=          -1394.309798
 Sum of electronic and thermal Energies=             -1394.291419
 Sum of electronic and thermal Enthalpies=           -1394.290475
 Sum of electronic and thermal Free Energies=        -1394.357981

                     E (Thermal)             CV                S
                      KCal/Mol        Cal/Mol-Kelvin    Cal/Mol-Kelvin
 Total                  177.205             70.041            142.077
 Electronic               0.000              0.000              0.000
 Translational            0.889              2.981             42.983
 Rotational               0.889              2.981             34.742
 Vibrational            175.427             64.080             64.352
 Vibration     1          0.593              1.985              6.351
 Vibration     2          0.594              1.983              5.736
 Vibration     3          0.596              1.976              4.705
 Vibration     4          0.597              1.972              4.349
 Vibration     5          0.600              1.961              3.822
 Vibration     6          0.604              1.950              3.475
 Vibration     7          0.608              1.934              3.128
 Vibration     8          0.610              1.931              3.068
 Vibration     9          0.625              1.879              2.436
 Vibration    10          0.630              1.864              2.308
 Vibration    11          0.642              1.825              2.042
 Vibration    12          0.661              1.769              1.758
 Vibration    13          0.674              1.730              1.601
 Vibration    14          0.684              1.700              1.499
 Vibration    15          0.692              1.676              1.424
 Vibration    16          0.715              1.609              1.244
 Vibration    17          0.727              1.575              1.167
 Vibration    18          0.735              1.552              1.117
 Vibration    19          0.739              1.543              1.098
 Vibration    20          0.758              1.492              1.001
 Vibration    21          0.793              1.401              0.853
 Vibration    22          0.812              1.354              0.786
 Vibration    23          0.820              1.334              0.760
 Vibration    24          0.841              1.284              0.698
 Vibration    25          0.850              1.262              0.672
 Vibration    26          0.864              1.230              0.636
 Vibration    27          0.869              1.219              0.624
 Vibration    28          0.903              1.144              0.548
 Vibration    29          0.927              1.095              0.503
 Vibration    30          0.941              1.065              0.478

 Optimization completed.
    -- Stationary point found.
 Normal termination of Gaussian 09 at Sat Mar 23 00:06:33 2019.
