 Gaussian 09, Revision B.01,
 Gaussian 09:  EM64L-G09RevB.01 12-Aug-2010

 ----------------------------------------------------------------------
 # m062x/6-31+G(d,p) opt freq=noraman integral(ultrafinegrid) scrf=(ief
 pcm,read,solvent=methanol)
 ----------------------------------------------------------------------

 Candidate Structure: 1b, Conformer: 16 geometry optimization and frequ
 ency calculation with methanol solvation
 ----------------------------------------------------------------------
 Symbolic Z-matrix:
 Charge =  0 Multiplicity = 1

 SCF Done:  E(RM062X) =  -1394.56096763     A.U. after   16 cycles
 SCF Done:  E(RM062X) =  -1394.57427245     A.U. after   14 cycles
 SCF Done:  E(RM062X) =  -1394.57270709     A.U. after   15 cycles
 SCF Done:  E(RM062X) =  -1394.57617316     A.U. after   14 cycles
 SCF Done:  E(RM062X) =  -1394.57725148     A.U. after   14 cycles
 SCF Done:  E(RM062X) =  -1394.57082394     A.U. after   14 cycles
 SCF Done:  E(RM062X) =  -1394.57820344     A.U. after   14 cycles
 SCF Done:  E(RM062X) =  -1394.57907653     A.U. after   13 cycles
 SCF Done:  E(RM062X) =  -1394.57932559     A.U. after   14 cycles
 SCF Done:  E(RM062X) =  -1394.57808695     A.U. after   14 cycles
 SCF Done:  E(RM062X) =  -1394.57964193     A.U. after   13 cycles
 SCF Done:  E(RM062X) =  -1394.57975112     A.U. after   12 cycles
 SCF Done:  E(RM062X) =  -1394.57976654     A.U. after   13 cycles
 SCF Done:  E(RM062X) =  -1394.57986896     A.U. after   13 cycles
 SCF Done:  E(RM062X) =  -1394.57991214     A.U. after   11 cycles
 SCF Done:  E(RM062X) =  -1394.57991409     A.U. after   11 cycles
 SCF Done:  E(RM062X) =  -1394.57991819     A.U. after   11 cycles
 SCF Done:  E(RM062X) =  -1394.57991996     A.U. after    9 cycles
 SCF Done:  E(RM062X) =  -1394.57992007     A.U. after    9 cycles
 Optimization completed.
    -- Stationary point found.
 Normal termination of Gaussian 09 at Fri Mar 22 23:51:38 2019.

 ----------------------------------------------------------------------
 #N Geom=AllCheck Guess=TCheck SCRF=Check GenChk RM062X/6-31+G(d,p) Fre
 q
 ----------------------------------------------------------------------

 ency calculation with methanol solvation
 ----------------------------------------------------------------------
 Redundant internal coordinates taken from checkpoint file:
 1b-conf-16.chk
 Charge =  0 Multiplicity = 1

                         Standard orientation:
 ---------------------------------------------------------------------
 Center     Atomic      Atomic             Coordinates (Angstroms)
 Number     Number       Type             X           Y           Z
 ---------------------------------------------------------------------
      1          8           0        0.342828   -2.151262   -1.236785
      2          6           0        1.341370   -1.360080   -0.810564
      3          6           0        1.156679    0.002956   -0.499402
      4          6           0       -0.171694    0.598482   -0.632066
      5          7           0       -1.201623   -0.010696   -1.099305
      6          6           0       -2.349527    0.893863   -0.940869
      7          6           0       -3.334741    0.348395    0.113617
      8          8           0       -4.207795   -0.601949   -0.460181
      9          6           0       -2.634265   -0.196044    1.371750
     10          6           0       -1.914913   -1.504020    1.143908
     11          8           0       -0.707116   -1.540626    1.705498
     12          8           0       -2.387620   -2.452598    0.544802
     13          6           0       -1.673125    2.255128   -0.634301
     14          6           0       -2.288691    3.170904    0.400913
     15          8           0       -0.337202    1.864558   -0.207592
     16          6           0        2.235173    0.774140   -0.047176
     17          6           0        3.480750    0.188996    0.089505
     18         17           0        4.828677    1.150019    0.653503
     19          6           0        3.678291   -1.160070   -0.214544
     20          6           0        2.613002   -1.927132   -0.661012
     21          1           0       -0.482976   -1.610649   -1.327793
     22          1           0       -2.909965    0.956516   -1.878400
     23          1           0       -3.976397    1.179646    0.425347
     24          1           0       -3.750622   -1.458430   -0.508553
     25          1           0       -3.396688   -0.388042    2.135588
     26          1           0       -1.928670    0.533983    1.776945
     27          1           0       -0.307038   -2.422819    1.543753
     28          1           0       -1.539025    2.798371   -1.577250
     29          1           0       -2.382598    2.685414    1.375188
     30          1           0       -1.667831    4.061732    0.518860
     31          1           0       -3.280698    3.490062    0.069296
     32          1           0        2.082800    1.822303    0.191556
     33          1           0        4.663266   -1.604065   -0.101328
     34          1           0        2.745663   -2.977567   -0.902127
 ---------------------------------------------------------------------

 SCF Done:  E(RM062X) =  -1394.57992007     A.U. after    1 cycles

 The electronic state is 1-A.
 Alpha  occ. eigenvalues -- -102.68010 -19.70582 -19.70420 -19.67768 -19.65652
 Alpha  occ. eigenvalues --  -19.65035 -14.77664 -10.70951 -10.67511 -10.64107
 Alpha  occ. eigenvalues --  -10.62771 -10.62308 -10.62166 -10.59742 -10.58824
 Alpha  occ. eigenvalues --  -10.58448 -10.58279 -10.57588 -10.56989 -10.55718
 Alpha  occ. eigenvalues --   -9.82665  -7.55064  -7.54408  -7.54401  -1.25311
 Alpha  occ. eigenvalues --   -1.24327  -1.19621  -1.16290  -1.14879  -1.04092
 Alpha  occ. eigenvalues --   -1.00879  -0.95387  -0.92614  -0.88983  -0.87332
 Alpha  occ. eigenvalues --   -0.83736  -0.81641  -0.77498  -0.73477  -0.72218
 Alpha  occ. eigenvalues --   -0.69758  -0.68459  -0.67591  -0.63105  -0.61754
 Alpha  occ. eigenvalues --   -0.60913  -0.59921  -0.58516  -0.57749  -0.56858
 Alpha  occ. eigenvalues --   -0.54875  -0.54609  -0.53423  -0.53276  -0.51881
 Alpha  occ. eigenvalues --   -0.51060  -0.51015  -0.49909  -0.48872  -0.48269
 Alpha  occ. eigenvalues --   -0.47333  -0.46690  -0.46275  -0.45889  -0.45387
 Alpha  occ. eigenvalues --   -0.44133  -0.43723  -0.42643  -0.41158  -0.40833
 Alpha  occ. eigenvalues --   -0.38942  -0.38781  -0.37636  -0.37085  -0.36489
 Alpha  occ. eigenvalues --   -0.34157  -0.31818  -0.28532
 Alpha virt. eigenvalues --   -0.03238   0.00810   0.00923   0.01594   0.02209
 Alpha virt. eigenvalues --    0.02362   0.03325   0.03383   0.03580   0.04577
 Alpha virt. eigenvalues --    0.04827   0.04899   0.05407   0.05633   0.06333

 Mulliken atomic charges:
              1
     1  O   -0.553599
     2  C   -0.434740
     3  C   -0.059627
     4  C    0.189123
     5  N   -0.408341
     6  C    0.101902
     7  C   -0.206464
     8  O   -0.529481
     9  C   -0.137463
    10  C    0.241744
    11  O   -0.412693
    12  O   -0.443835
    13  C    0.173324
    14  C   -0.483561
    15  O   -0.303623
    16  C   -0.543230
    17  C    0.180219
    18  Cl   0.206911
    19  C   -0.482860
    20  C    0.416271
    21  H    0.449324
    22  H    0.201797
    23  H    0.171737
    24  H    0.414457
    25  H    0.232216
    26  H    0.201113
    27  H    0.446072
    28  H    0.197525
    29  H    0.167661
    30  H    0.188107
    31  H    0.190808
    32  H    0.220055
    33  H    0.208102
    34  H    0.201046
 Sum of Mulliken atomic charges =   0.00000

 Dipole moment (field-independent basis, Debye):
    X=             -0.2424    Y=              3.3602    Z=              1.5793  Tot=              3.7207
 Quadrupole moment (field-independent basis, Debye-Ang):
   XX=           -136.9834   YY=           -117.5708   ZZ=           -123.7729
   XY=            -22.7981   XZ=             -5.6940   YZ=             -5.9368

  Exact polarizability: 303.215  -1.612 248.400  29.007  20.615 169.664
 Approx polarizability: 264.507   6.405 236.175  29.242  24.106 168.726

                     1                      2                      3
                     A                      A                      A
 Frequencies --    32.2338                59.0458                64.1144
 Red. masses --     9.5780                 6.4591                 6.1271
 Frc consts  --     0.0059                 0.0133                 0.0148
 IR Inten    --     0.3642                 3.0934                 0.5733

                     4                      5                      6
                     A                      A                      A
 Frequencies --    95.3918               103.0199               106.2589
 Red. masses --     6.3509                 7.2699                 6.7264
 Frc consts  --     0.0340                 0.0455                 0.0447
 IR Inten    --     0.9703                 1.5575                 2.8063

                     7                      8                      9
                     A                      A                      A
 Frequencies --   124.6651               140.7144               169.9218
 Red. masses --     5.6942                 7.3904                 5.2860
 Frc consts  --     0.0521                 0.0862                 0.0899
 IR Inten    --     3.0579                 1.6181                 0.9592

                    10                     11                     12
                     A                      A                      A
 Frequencies --   179.8969               232.7891               242.5356
 Red. masses --     4.0299                 5.7022                 2.5583
 Frc consts  --     0.0768                 0.1821                 0.0887
 IR Inten    --     0.0297                15.1711                 2.3100

                    13                     14                     15
                     A                      A                      A
 Frequencies --   261.5493               277.1820               296.0255
 Red. masses --     1.5981                 2.7618                 4.2201
 Frc consts  --     0.0644                 0.1250                 0.2179
 IR Inten    --     1.8543                 4.2105                 4.1274

                    16                     17                     18
                     A                      A                      A
 Frequencies --   314.8863               348.5849               368.5334
 Red. masses --     5.9710                 6.0569                 6.1921
 Frc consts  --     0.3488                 0.4336                 0.4955
 IR Inten    --     0.2746                 2.7638                 6.2360

                    19                     20                     21
                     A                      A                      A
 Frequencies --   379.2713               396.1089               414.8699
 Red. masses --     7.5046                 1.4025                 3.6690
 Frc consts  --     0.6360                 0.1296                 0.3721
 IR Inten    --     9.2107               142.6866                34.2244

                    22                     23                     24
                     A                      A                      A
 Frequencies --   426.9114               458.0223               480.7300
 Red. masses --     3.3332                 4.0066                 3.2926
 Frc consts  --     0.3579                 0.4952                 0.4483
 IR Inten    --    36.6446                11.2403                 6.7393

                    25                     26                     27
                     A                      A                      A
 Frequencies --   508.1312               540.8044               555.1011
 Red. masses --     3.0071                 3.2662                 3.3607
 Frc consts  --     0.4574                 0.5628                 0.6101
 IR Inten    --    14.6441                 3.8815                 2.3642

                    28                     29                     30
                     A                      A                      A
 Frequencies --   561.2488               612.2818               658.5197
 Red. masses --     2.8622                 3.1086                 6.8999
 Frc consts  --     0.5312                 0.6866                 1.7629
 IR Inten    --    69.1864                71.5378                39.0136

                    31                     32                     33
                     A                      A                      A
 Frequencies --   669.3110               706.7986               714.7326
 Red. masses --     1.5860                 4.9829                 5.3261
 Frc consts  --     0.4186                 1.4667                 1.6030
 IR Inten    --   323.0264                19.6682                72.3633

                    34                     35                     36
                     A                      A                      A
 Frequencies --   745.9592               760.5193               779.5258
 Red. masses --     1.9634                 2.3084                 2.9887
 Frc consts  --     0.6437                 0.7867                 1.0700
 IR Inten    --    91.2099                10.3091                22.4282

                    37                     38                     39
                     A                      A                      A
 Frequencies --   795.4569               846.0621               851.0824
 Red. masses --     3.4021                 3.5881                 1.5486
 Frc consts  --     1.2683                 1.5133                 0.6609
 IR Inten    --    26.7974                 5.0329                43.4470

                    40                     41                     42
                     A                      A                      A
 Frequencies --   861.5882               893.3618               914.9158
 Red. masses --     6.0275                 4.1543                 2.3323
 Frc consts  --     2.6363                 1.9534                 1.1502
 IR Inten    --     1.7807                58.8889                 2.0723

                    43                     44                     45
                     A                      A                      A
 Frequencies --   924.4633               944.1650               952.3619
 Red. masses --     1.4591                 3.8042                 2.9942
 Frc consts  --     0.7347                 1.9981                 1.6001
 IR Inten    --    19.0927                17.3421                25.8421

                    46                     47                     48
                     A                      A                      A
 Frequencies --   979.0915               987.2540              1029.9589
 Red. masses --     2.4695                 1.3315                 1.9463
 Frc consts  --     1.3948                 0.7647                 1.2164
 IR Inten    --    11.7877                 0.4466                37.6259

                    49                     50                     51
                     A                      A                      A
 Frequencies --  1063.8966              1098.0321              1110.1750
 Red. masses --     2.3771                 2.2925                 2.5216
 Frc consts  --     1.5852                 1.6285                 1.8311
 IR Inten    --    35.4580                23.4890               148.1507

                    52                     53                     54
                     A                      A                      A
 Frequencies --  1124.8156              1128.4612              1160.2495
 Red. masses --     2.8315                 2.0926                 1.6761
 Frc consts  --     2.1107                 1.5700                 1.3294
 IR Inten    --    66.9302               123.6672                30.8500

                    55                     56                     57
                     A                      A                      A
 Frequencies --  1173.1894              1180.6172              1191.2222
 Red. masses --     2.0207                 1.7647                 1.8897
 Frc consts  --     1.6387                 1.4492                 1.5799
 IR Inten    --    50.4084               298.1648               205.3264

                    58                     59                     60
                     A                      A                      A
 Frequencies --  1228.7803              1242.4396              1260.4180
 Red. masses --     1.4438                 1.6158                 1.4704
 Frc consts  --     1.2844                 1.4695                 1.3763
 IR Inten    --    30.9316               249.9282                41.3636

                    61                     62                     63
                     A                      A                      A
 Frequencies --  1276.1049              1289.4629              1326.5061
 Red. masses --     1.9123                 1.7534                 1.5409
 Frc consts  --     1.8348                 1.7177                 1.5975
 IR Inten    --   125.5190                41.4476                22.1834

                    64                     65                     66
                     A                      A                      A
 Frequencies --  1333.1060              1349.2920              1355.0632
 Red. masses --     2.5779                 1.5556                 1.9473
 Frc consts  --     2.6992                 1.6686                 2.1067
 IR Inten    --    95.1728                 1.8376                 8.9875

                    67                     68                     69
                     A                      A                      A
 Frequencies --  1375.3761              1389.6796              1398.4411
 Red. masses --     1.5141                 1.5747                 1.7828
 Frc consts  --     1.6875                 1.7918                 2.0542
 IR Inten    --    21.3587                28.5494                55.0602

                    70                     71                     72
                     A                      A                      A
 Frequencies --  1423.7325              1428.5405              1443.3784
 Red. masses --     1.6801                 1.5594                 1.1695
 Frc consts  --     2.0065                 1.8750                 1.4355
 IR Inten    --   187.6227                74.3321                23.9914

                    73                     74                     75
                     A                      A                      A
 Frequencies --  1456.0899              1469.3263              1485.1560
 Red. masses --     2.5226                 1.4353                 3.2045
 Frc consts  --     3.1512                 1.8257                 4.1645
 IR Inten    --   236.4581                39.7221                 1.0697

                    76                     77                     78
                     A                      A                      A
 Frequencies --  1490.7645              1504.0095              1531.8017
 Red. masses --     1.0700                 1.0698                 3.6099
 Frc consts  --     1.4011                 1.4258                 4.9906
 IR Inten    --    17.6246                37.9871               315.1971

                    79                     80                     81
                     A                      A                      A
 Frequencies --  1646.9359              1685.4056              1724.3386
 Red. masses --     6.0764                 7.2716                 9.4859
 Frc consts  --     9.7107                12.1699                16.6178
 IR Inten    --    64.5294                80.6114               544.8087

                    82                     83                     84
                     A                      A                      A
 Frequencies --  1807.5503              3075.6521              3083.7331
 Red. masses --     9.9264                 1.0874                 1.0375
 Frc consts  --    19.1084                 6.0606                 5.8131
 IR Inten    --   551.0639                15.1685                 8.3668

                    85                     86                     87
                     A                      A                      A
 Frequencies --  3084.7086              3096.5092              3108.3693
 Red. masses --     1.0656                 1.0834                 1.0874
 Frc consts  --     5.9742                 6.1202                 6.1904
 IR Inten    --     3.6376                20.6990                19.9592

                    88                     89                     90
                     A                      A                      A
 Frequencies --  3151.8551              3165.5035              3172.2641
 Red. masses --     1.1013                 1.1026                 1.1034
 Frc consts  --     6.4458                 6.5094                 6.5420
 IR Inten    --     5.1311                 9.8010                17.4492

                    91                     92                     93
                     A                      A                      A
 Frequencies --  3210.8664              3222.5672              3224.3729
 Red. masses --     1.0906                 1.0966                 1.0943
 Frc consts  --     6.6245                 6.7097                 6.7031
 IR Inten    --     0.0669                 9.9132                 7.1339

                    94                     95                     96
                     A                      A                      A
 Frequencies --  3285.1526              3581.4794              3741.2297
 Red. masses --     1.0713                 1.0645                 1.0663
 Frc consts  --     6.8122                 8.0453                 8.7935
 IR Inten    --   987.0859               317.0462               241.1081

 - Thermochemistry -
 -------------------
 Temperature   298.150 Kelvin.  Pressure   1.00000 Atm.
 Atom     1 has atomic number  8 and mass  15.99491

 Molecular mass:   299.05605 amu.
 Principal axes and moments of inertia in atomic units:
                           1         2         3
     Eigenvalues --  3258.211168760.59554**********
           X            0.99953  -0.03009  -0.00621
           Y            0.03012   0.99953   0.00476
           Z            0.00607  -0.00494   0.99997
 This molecule is an asymmetric top.
 Rotational symmetry number  1.
 Warning -- assumption of classical behavior for rotation
           may cause significant error
 Rotational temperatures (Kelvin)      0.02658     0.00989     0.00824
 Rotational constants (GHZ):           0.55391     0.20601     0.17163
 Zero-point vibrational energy     694567.3 (Joules/Mol)
                                  166.00556 (Kcal/Mol)
 Warning -- explicit consideration of  29 degrees of freedom as
           vibrations may cause significant error
 Vibrational temperatures:     46.38    84.95    92.25   137.25   148.22
          (Kelvin)            152.88   179.36   202.46   244.48   258.83
                              334.93   348.95   376.31   398.80   425.91
                              453.05   501.54   530.24   545.69   569.91
                              596.90   614.23   658.99   691.66   731.09
                              778.10   798.67   807.51   880.94   947.46
                              962.99  1016.92  1028.34  1073.27  1094.22
                             1121.56  1144.48  1217.29  1224.52  1239.63
                             1285.35  1316.36  1330.09  1358.44  1370.23
                             1408.69  1420.44  1481.88  1530.71  1579.82
                             1597.29  1618.36  1623.60  1669.34  1687.96
                             1698.64  1713.90  1767.94  1787.59  1813.46
                             1836.03  1855.25  1908.54  1918.04  1941.33
                             1949.63  1978.86  1999.44  2012.04  2048.43
                             2055.35  2076.70  2094.99  2114.03  2136.81
                             2144.87  2163.93  2203.92  2369.57  2424.92
                             2480.94  2600.66  4425.17  4436.80  4438.20
                             4455.18  4472.24  4534.81  4554.45  4564.17
                             4619.71  4636.55  4639.15  4726.60  5152.94
                             5382.79

 Zero-point correction=                           0.264547 (Hartree/Particle)
 Thermal correction to Energy=                    0.282489
 Thermal correction to Enthalpy=                  0.283433
 Thermal correction to Gibbs Free Energy=         0.218416
 Sum of electronic and zero-point Energies=          -1394.315373
 Sum of electronic and thermal Energies=             -1394.297431
 Sum of electronic and thermal Enthalpies=           -1394.296487
 Sum of electronic and thermal Free Energies=        -1394.361504

                     E (Thermal)             CV                S
                      KCal/Mol        Cal/Mol-Kelvin    Cal/Mol-Kelvin
 Total                  177.265             69.157            136.840
 Electronic               0.000              0.000              0.000
 Translational            0.889              2.981             42.983
 Rotational               0.889              2.981             34.061
 Vibrational            175.487             63.195             59.795
 Vibration     1          0.594              1.983              5.687
 Vibration     2          0.596              1.974              4.489
 Vibration     3          0.597              1.971              4.326
 Vibration     4          0.603              1.952              3.546
 Vibration     5          0.605              1.947              3.396
 Vibration     6          0.605              1.944              3.336
 Vibration     7          0.610              1.928              3.027
 Vibration     8          0.615              1.913              2.794
 Vibration     9          0.625              1.880              2.436
 Vibration    10          0.629              1.867              2.329
 Vibration    11          0.654              1.791              1.857
 Vibration    12          0.659              1.775              1.784
 Vibration    13          0.669              1.743              1.651
 Vibration    14          0.678              1.716              1.551
 Vibration    15          0.690              1.681              1.439
 Vibration    16          0.702              1.645              1.337
 Vibration    17          0.726              1.578              1.173
 Vibration    18          0.741              1.537              1.086
 Vibration    19          0.749              1.514              1.042
 Vibration    20          0.763              1.478              0.977
 Vibration    21          0.778              1.438              0.910
 Vibration    22          0.789              1.412              0.869
 Vibration    23          0.816              1.343              0.772
 Vibration    24          0.837              1.293              0.708
 Vibration    25          0.863              1.232              0.638
 Vibration    26          0.896              1.160              0.564
 Vibration    27          0.911              1.129              0.534
 Vibration    28          0.917              1.115              0.521
 Vibration    29          0.972              1.006              0.429

 Optimization completed.
    -- Stationary point found.
 Normal termination of Gaussian 09 at Sat Mar 23 00:18:39 2019.
