 Gaussian 09, Revision B.01,
 Gaussian 09:  EM64L-G09RevB.01 12-Aug-2010

 ----------------------------------------------------------------------
 # m062x/6-31+G(d,p) opt freq=noraman integral(ultrafinegrid) scrf=(ief
 pcm,read,solvent=methanol)
 ----------------------------------------------------------------------

 Candidate Structure: 1b, Conformer: 11 geometry optimization and frequ
 ency calculation with methanol solvation
 ----------------------------------------------------------------------
 Symbolic Z-matrix:
 Charge =  0 Multiplicity = 1

 SCF Done:  E(RM062X) =  -1394.55573356     A.U. after   15 cycles
 SCF Done:  E(RM062X) =  -1394.56715272     A.U. after   15 cycles
 SCF Done:  E(RM062X) =  -1394.55968968     A.U. after   16 cycles
 SCF Done:  E(RM062X) =  -1394.57122922     A.U. after   16 cycles
 SCF Done:  E(RM062X) =  -1394.57304392     A.U. after   16 cycles
 SCF Done:  E(RM062X) =  -1394.57220611     A.U. after   15 cycles
 SCF Done:  E(RM062X) =  -1394.57369468     A.U. after   13 cycles
 SCF Done:  E(RM062X) =  -1394.57378108     A.U. after   14 cycles
 SCF Done:  E(RM062X) =  -1394.57389383     A.U. after   13 cycles
 SCF Done:  E(RM062X) =  -1394.57428656     A.U. after   13 cycles
 SCF Done:  E(RM062X) =  -1394.57433743     A.U. after   13 cycles
 SCF Done:  E(RM062X) =  -1394.57434367     A.U. after   12 cycles
 SCF Done:  E(RM062X) =  -1394.57435993     A.U. after   11 cycles
 SCF Done:  E(RM062X) =  -1394.57436165     A.U. after   11 cycles
 SCF Done:  E(RM062X) =  -1394.57436187     A.U. after    9 cycles
 SCF Done:  E(RM062X) =  -1394.57436238     A.U. after    9 cycles
 Optimization completed.
    -- Stationary point found.
 Normal termination of Gaussian 09 at Fri Mar 22 22:57:36 2019.

 ----------------------------------------------------------------------
 #N Geom=AllCheck Guess=TCheck SCRF=Check GenChk RM062X/6-31+G(d,p) Fre
 q
 ----------------------------------------------------------------------

 ency calculation with methanol solvation
 ----------------------------------------------------------------------
 Redundant internal coordinates taken from checkpoint file:
 1b-conf-11.chk
 Charge =  0 Multiplicity = 1

                         Standard orientation:
 ---------------------------------------------------------------------
 Center     Atomic      Atomic             Coordinates (Angstroms)
 Number     Number       Type             X           Y           Z
 ---------------------------------------------------------------------
      1          8           0       -0.678514    2.818658   -0.124167
      2          6           0       -1.551504    1.798135   -0.108795
      3          6           0       -1.186813    0.480158   -0.452328
      4          6           0        0.197213    0.192055   -0.820543
      5          7           0        1.122871    1.077230   -0.927465
      6          6           0        2.378012    0.350469   -1.174746
      7          6           0        3.311841    0.420024    0.059775
      8          8           0        4.159762    1.551472   -0.047532
      9          6           0        2.597844    0.481173    1.421629
     10          6           0        1.832233   -0.763423    1.794221
     11          8           0        0.537233   -0.530895    2.024747
     12          8           0        2.333280   -1.864086    1.897150
     13          6           0        1.865246   -1.027752   -1.646048
     14          6           0        2.658513   -2.273449   -1.331230
     15          8           0        0.540678   -1.092212   -1.043044
     16          6           0       -2.137359   -0.547584   -0.413394
     17          6           0       -3.436244   -0.258600   -0.036784
     18         17           0       -4.625959   -1.540204    0.015204
     19          6           0       -3.813049    1.042623    0.305212
     20          6           0       -2.874323    2.062297    0.268455
     21          1           0        0.205399    2.476067   -0.418830
     22          1           0        2.933561    0.824680   -1.989587
     23          1           0        3.984031   -0.444444    0.040317
     24          1           0        3.614464    2.358118   -0.065577
     25          1           0        1.936070    1.349508    1.454310
     26          1           0        3.379346    0.603766    2.178245
     27          1           0        0.097826   -1.374527    2.266199
     28          1           0        1.691641   -0.961019   -2.727809
     29          1           0        2.783198   -2.416843   -0.257092
     30          1           0        2.152455   -3.146901   -1.749051
     31          1           0        3.644476   -2.198178   -1.799862
     32          1           0       -1.845162   -1.559481   -0.677436
     33          1           0       -4.837857    1.252120    0.598356
     34          1           0       -3.147401    3.079724    0.531857
 ---------------------------------------------------------------------

 SCF Done:  E(RM062X) =  -1394.57436238     A.U. after    1 cycles

 The electronic state is 1-A.
 Alpha  occ. eigenvalues -- -102.67974 -19.70299 -19.70215 -19.67589 -19.65775
 Alpha  occ. eigenvalues --  -19.65356 -14.77593 -10.70450 -10.67343 -10.63948
 Alpha  occ. eigenvalues --  -10.62542 -10.62282 -10.62227 -10.59817 -10.58649
 Alpha  occ. eigenvalues --  -10.58322 -10.58177 -10.56938 -10.56899 -10.54949
 Alpha  occ. eigenvalues --   -9.82627  -7.55025  -7.54371  -7.54363  -1.24948
 Alpha  occ. eigenvalues --   -1.24084  -1.19459  -1.16059  -1.15217  -1.03938
 Alpha  occ. eigenvalues --   -1.00784  -0.95251  -0.92287  -0.88728  -0.87189
 Alpha  occ. eigenvalues --   -0.83594  -0.81240  -0.77146  -0.73340  -0.72045
 Alpha  occ. eigenvalues --   -0.69671  -0.68109  -0.67543  -0.62824  -0.61539
 Alpha  occ. eigenvalues --   -0.60824  -0.59803  -0.58729  -0.57455  -0.55856
 Alpha  occ. eigenvalues --   -0.54931  -0.54478  -0.53578  -0.53283  -0.52074
 Alpha  occ. eigenvalues --   -0.50887  -0.50423  -0.49228  -0.48943  -0.48084
 Alpha  occ. eigenvalues --   -0.47184  -0.46421  -0.45973  -0.45699  -0.44964
 Alpha  occ. eigenvalues --   -0.43661  -0.43400  -0.42323  -0.40855  -0.40255
 Alpha  occ. eigenvalues --   -0.38846  -0.38730  -0.38119  -0.36596  -0.36434
 Alpha  occ. eigenvalues --   -0.34257  -0.31936  -0.28440
 Alpha virt. eigenvalues --   -0.03007   0.00655   0.01021   0.01781   0.02297
 Alpha virt. eigenvalues --    0.02373   0.02892   0.03229   0.03425   0.04545
 Alpha virt. eigenvalues --    0.04647   0.04951   0.05190   0.05685   0.06258

 Mulliken atomic charges:
              1
     1  O   -0.543543
     2  C   -0.647210
     3  C    0.003006
     4  C    0.060093
     5  N   -0.299567
     6  C   -0.127873
     7  C   -0.116989
     8  O   -0.534768
     9  C   -0.069261
    10  C    0.122054
    11  O   -0.395833
    12  O   -0.413140
    13  C    0.435913
    14  C   -0.506924
    15  O   -0.261923
    16  C   -0.491270
    17  C    0.147336
    18  Cl   0.194104
    19  C   -0.482509
    20  C    0.427861
    21  H    0.452135
    22  H    0.208472
    23  H    0.183878
    24  H    0.414108
    25  H    0.201115
    26  H    0.219768
    27  H    0.445224
    28  H    0.192722
    29  H    0.190318
    30  H    0.181795
    31  H    0.185337
    32  H    0.219071
    33  H    0.206833
    34  H    0.199669
 Sum of Mulliken atomic charges =   0.00000

 Dipole moment (field-independent basis, Debye):
    X=              0.5468    Y=              0.3631    Z=             -1.1924  Tot=              1.3611
 Quadrupole moment (field-independent basis, Debye-Ang):
   XX=           -134.2986   YY=           -127.9588   ZZ=           -120.0230
   XY=             -2.4670   XZ=            -10.0014   YZ=              5.9477

  Exact polarizability: 300.042  14.586 253.336 -26.503   9.809 168.388
 Approx polarizability: 261.132  14.389 246.047 -21.645   8.756 161.385

                     1                      2                      3
                     A                      A                      A
 Frequencies --    24.3365                33.2811                51.4859
 Red. masses --     8.5730                 9.5620                 5.8510
 Frc consts  --     0.0030                 0.0062                 0.0091
 IR Inten    --     0.2105                 1.8274                 1.6001

                     4                      5                      6
                     A                      A                      A
 Frequencies --    74.3758               103.5386               106.9682
 Red. masses --     7.6029                 5.9804                 6.6442
 Frc consts  --     0.0248                 0.0378                 0.0448
 IR Inten    --     1.8603                 3.1438                 1.8016

                     7                      8                      9
                     A                      A                      A
 Frequencies --   130.6419               135.3945               157.0891
 Red. masses --     6.6475                 5.8729                 6.1468
 Frc consts  --     0.0668                 0.0634                 0.0894
 IR Inten    --     0.3017                 2.7229                 5.2652

                    10                     11                     12
                     A                      A                      A
 Frequencies --   183.2373               201.8780               235.1975
 Red. masses --     5.3303                 3.7305                 2.7460
 Frc consts  --     0.1054                 0.0896                 0.0895
 IR Inten    --     1.0036                 3.3454                 0.7643

                    13                     14                     15
                     A                      A                      A
 Frequencies --   262.3908               280.2999               303.5446
 Red. masses --     1.6466                 2.6724                 4.2046
 Frc consts  --     0.0668                 0.1237                 0.2283
 IR Inten    --     1.9533                 4.4020                15.7493

                    16                     17                     18
                     A                      A                      A
 Frequencies --   323.8912               346.6603               352.1079
 Red. masses --     3.1644                 1.9630                 3.5800
 Frc consts  --     0.1956                 0.1390                 0.2615
 IR Inten    --    12.1296                95.5767                19.4965

                    19                     20                     21
                     A                      A                      A
 Frequencies --   379.3285               384.8309               418.6302
 Red. masses --    10.1666                 4.2300                 5.1776
 Frc consts  --     0.8619                 0.3691                 0.5346
 IR Inten    --     5.8171                73.3881                 5.5124

                    22                     23                     24
                     A                      A                      A
 Frequencies --   425.3535               443.7645               463.4227
 Red. masses --     3.5603                 3.1953                 3.8765
 Frc consts  --     0.3795                 0.3707                 0.4905
 IR Inten    --    14.8471                14.0042                 2.9891

                    25                     26                     27
                     A                      A                      A
 Frequencies --   507.9627               538.1858               554.5028
 Red. masses --     3.3986                 3.5088                 3.8499
 Frc consts  --     0.5167                 0.5988                 0.6974
 IR Inten    --    10.6496                 5.3758                 7.1271

                    28                     29                     30
                     A                      A                      A
 Frequencies --   572.6991               607.6055               640.0193
 Red. masses --     2.2087                 2.3551                 2.1637
 Frc consts  --     0.4268                 0.5123                 0.5222
 IR Inten    --   140.6373                36.1984                93.8788

                    31                     32                     33
                     A                      A                      A
 Frequencies --   657.1802               701.9977               706.7530
 Red. masses --     7.4479                 4.1037                 4.9509
 Frc consts  --     1.8952                 1.1915                 1.4570
 IR Inten    --    21.9517                81.1691                 4.7248

                    34                     35                     36
                     A                      A                      A
 Frequencies --   725.5546               754.3616               763.3778
 Red. masses --     4.0024                 1.2721                 4.2896
 Frc consts  --     1.2414                 0.4265                 1.4728
 IR Inten    --    48.0283               111.8117                40.8199

                    37                     38                     39
                     A                      A                      A
 Frequencies --   784.5557               850.5256               859.8170
 Red. masses --     3.1334                 1.5423                 5.8879
 Frc consts  --     1.1364                 0.6573                 2.5646
 IR Inten    --    81.4182                42.4657                 2.7008

                    40                     41                     42
                     A                      A                      A
 Frequencies --   869.5466               901.7323               922.9726
 Red. masses --     3.7021                 2.7414                 1.4437
 Frc consts  --     1.6493                 1.3133                 0.7246
 IR Inten    --    12.7501                26.9275                20.2463

                    43                     44                     45
                     A                      A                      A
 Frequencies --   942.3321               949.8238               961.9645
 Red. masses --     3.7899                 4.5642                 2.1113
 Frc consts  --     1.9829                 2.4261                 1.1511
 IR Inten    --     4.4127                 7.7598                18.8054

                    46                     47                     48
                     A                      A                      A
 Frequencies --   983.5946               985.9901              1056.3641
 Red. masses --     2.2899                 1.3329                 2.0353
 Frc consts  --     1.3053                 0.7635                 1.3381
 IR Inten    --     9.2441                 0.5539                33.0077

                    49                     50                     51
                     A                      A                      A
 Frequencies --  1063.9251              1104.7792              1112.8163
 Red. masses --     2.8862                 2.3309                 3.3841
 Frc consts  --     1.9249                 1.6762                 2.4691
 IR Inten    --   151.5281                84.2111               169.4546

                    52                     53                     54
                     A                      A                      A
 Frequencies --  1117.6659              1127.6109              1157.4079
 Red. masses --     2.9868                 2.2097                 1.4444
 Frc consts  --     2.1983                 1.6554                 1.1400
 IR Inten    --    82.4285               127.1254                58.8544

                    55                     56                     57
                     A                      A                      A
 Frequencies --  1166.9419              1173.7670              1205.8955
 Red. masses --     1.6994                 2.1255                 2.0434
 Frc consts  --     1.3634                 1.7254                 1.7508
 IR Inten    --    50.2985                60.2873                93.2334

                    58                     59                     60
                     A                      A                      A
 Frequencies --  1226.1786              1240.3827              1247.8848
 Red. masses --     1.5235                 1.3755                 1.5677
 Frc consts  --     1.3496                 1.2469                 1.4383
 IR Inten    --   128.7355               127.0885               149.1972

                    61                     62                     63
                     A                      A                      A
 Frequencies --  1277.0760              1289.0604              1304.1072
 Red. masses --     1.9507                 1.7212                 1.4236
 Frc consts  --     1.8744                 1.6851                 1.4265
 IR Inten    --   140.5298                75.8486                 7.2335

                    64                     65                     66
                     A                      A                      A
 Frequencies --  1332.6130              1351.4510              1356.9429
 Red. masses --     2.6753                 1.8879                 1.5821
 Frc consts  --     2.7991                 2.0315                 1.7163
 IR Inten    --    86.7988                10.8394                 9.9756

                    67                     68                     69
                     A                      A                      A
 Frequencies --  1377.2072              1388.2295              1404.8182
 Red. masses --     1.6048                 1.4507                 1.8553
 Frc consts  --     1.7934                 1.6472                 2.1573
 IR Inten    --    80.6731                22.1406                81.9380

                    70                     71                     72
                     A                      A                      A
 Frequencies --  1420.9797              1426.6892              1431.4729
 Red. masses --     1.8552                 1.2795                 1.4819
 Frc consts  --     2.2071                 1.5345                 1.7891
 IR Inten    --   134.8434                36.1759                50.8945

                    73                     74                     75
                     A                      A                      A
 Frequencies --  1460.7676              1475.3044              1490.4210
 Red. masses --     2.5812                 1.2603                 2.6142
 Frc consts  --     3.2452                 1.6162                 3.4214
 IR Inten    --   161.1721                75.1285                16.4668

                    76                     77                     78
                     A                      A                      A
 Frequencies --  1494.1109              1513.7525              1531.8666
 Red. masses --     1.0779                 1.0762                 3.5162
 Frc consts  --     1.4178                 1.4530                 4.8614
 IR Inten    --     4.1368                57.5480               315.0874

                    79                     80                     81
                     A                      A                      A
 Frequencies --  1647.9931              1684.7578              1722.6485
 Red. masses --     5.8837                 7.0617                 9.3014
 Frc consts  --     9.4148                11.8095                16.2627
 IR Inten    --    72.7679                92.2768               518.7767

                    82                     83                     84
                     A                      A                      A
 Frequencies --  1825.5551              3061.8143              3083.9935
 Red. masses --    10.5390                 1.0869                 1.0381
 Frc consts  --    20.6937                 6.0033                 5.8173
 IR Inten    --   603.9976                22.4701                17.6522

                    85                     86                     87
                     A                      A                      A
 Frequencies --  3097.1036              3103.0496              3108.8440
 Red. masses --     1.0617                 1.0868                 1.0864
 Frc consts  --     6.0003                 6.1657                 6.1861
 IR Inten    --     1.7044                12.9857                15.6344

                    88                     89                     90
                     A                      A                      A
 Frequencies --  3158.2554              3163.4813              3194.1622
 Red. masses --     1.1018                 1.1040                 1.1018
 Frc consts  --     6.4751                 6.5097                 6.6233
 IR Inten    --    13.1463                 6.2832                 0.2201

                    91                     92                     93
                     A                      A                      A
 Frequencies --  3209.5726              3220.9355              3223.0016
 Red. masses --     1.0904                 1.0970                 1.0940
 Frc consts  --     6.6179                 6.7053                 6.6956
 IR Inten    --     0.7699                 8.7822                 8.2326

                    94                     95                     96
                     A                      A                      A
 Frequencies --  3251.5043              3591.8744              3699.7677
 Red. masses --     1.0719                 1.0647                 1.0668
 Frc consts  --     6.6767                 8.0931                 8.6038
 IR Inten    --  1084.3393               307.3294               167.9390

 - Thermochemistry -
 -------------------
 Temperature   298.150 Kelvin.  Pressure   1.00000 Atm.
 Atom     1 has atomic number  8 and mass  15.99491

 Molecular mass:   299.05605 amu.
 Principal axes and moments of inertia in atomic units:
                           1         2         3
     Eigenvalues --  3307.009989140.30769**********
           X            0.99982  -0.01694  -0.00843
           Y            0.01735   0.99852   0.05156
           Z            0.00755  -0.05169   0.99863
 This molecule is an asymmetric top.
 Rotational symmetry number  1.
 Warning -- assumption of classical behavior for rotation
           may cause significant error
 Rotational temperatures (Kelvin)      0.02619     0.00948     0.00859
 Rotational constants (GHZ):           0.54573     0.19745     0.17902
 Zero-point vibrational energy     693484.2 (Joules/Mol)
                                  165.74671 (Kcal/Mol)
 Warning -- explicit consideration of  29 degrees of freedom as
           vibrations may cause significant error
 Vibrational temperatures:     35.01    47.88    74.08   107.01   148.97
          (Kelvin)            153.90   187.96   194.80   226.02   263.64
                              290.46   338.40   377.52   403.29   436.73
                              466.01   498.77   506.60   545.77   553.69
                              602.31   611.99   638.48   666.76   730.84
                              774.33   797.80   823.99   874.21   920.84
                              945.53  1010.02  1016.86  1043.91  1085.36
                             1098.33  1128.80  1223.72  1237.08  1251.08
                             1297.39  1327.95  1355.80  1366.58  1384.05
                             1415.17  1418.62  1519.87  1530.75  1589.53
                             1601.09  1608.07  1622.38  1665.25  1678.97
                             1688.79  1735.01  1764.20  1784.63  1795.43
                             1837.43  1854.67  1876.32  1917.33  1944.43
                             1952.34  1981.49  1997.35  2021.22  2044.47
                             2052.68  2059.57  2101.72  2122.63  2144.38
                             2149.69  2177.95  2204.01  2371.09  2423.99
                             2478.50  2626.56  4405.26  4437.17  4456.04
                             4464.59  4472.93  4544.02  4551.54  4595.68
                             4617.85  4634.20  4637.17  4678.18  5167.90
                             5323.13

 Zero-point correction=                           0.264134 (Hartree/Particle)
 Thermal correction to Energy=                    0.282333
 Thermal correction to Enthalpy=                  0.283277
 Thermal correction to Gibbs Free Energy=         0.216756
 Sum of electronic and zero-point Energies=          -1394.310228
 Sum of electronic and thermal Energies=             -1394.292029
 Sum of electronic and thermal Enthalpies=           -1394.291085
 Sum of electronic and thermal Free Energies=        -1394.357606

                     E (Thermal)             CV                S
                      KCal/Mol        Cal/Mol-Kelvin    Cal/Mol-Kelvin
 Total                  177.167             69.403            140.006
 Electronic               0.000              0.000              0.000
 Translational            0.889              2.981             42.983
 Rotational               0.889              2.981             34.076
 Vibrational            175.389             63.442             62.946
 Vibration     1          0.593              1.985              6.245
 Vibration     2          0.594              1.983              5.624
 Vibration     3          0.596              1.977              4.759
 Vibration     4          0.599              1.966              4.034
 Vibration     5          0.605              1.946              3.387
 Vibration     6          0.606              1.944              3.323
 Vibration     7          0.612              1.923              2.937
 Vibration     8          0.613              1.918              2.868
 Vibration     9          0.621              1.895              2.585
 Vibration    10          0.631              1.863              2.295
 Vibration    11          0.639              1.837              2.116
 Vibration    12          0.655              1.787              1.839
 Vibration    13          0.670              1.742              1.646
 Vibration    14          0.680              1.710              1.532
 Vibration    15          0.695              1.667              1.397
 Vibration    16          0.708              1.628              1.290
 Vibration    17          0.725              1.582              1.181
 Vibration    18          0.729              1.571              1.157
 Vibration    19          0.749              1.514              1.042
 Vibration    20          0.754              1.503              1.020
 Vibration    21          0.781              1.430              0.897
 Vibration    22          0.787              1.415              0.874
 Vibration    23          0.803              1.375              0.815
 Vibration    24          0.821              1.331              0.756
 Vibration    25          0.863              1.232              0.639
 Vibration    26          0.893              1.166              0.569
 Vibration    27          0.910              1.130              0.535
 Vibration    28          0.929              1.090              0.499
 Vibration    29          0.966              1.016              0.437

 Optimization completed.
    -- Stationary point found.
 Normal termination of Gaussian 09 at Fri Mar 22 23:24:02 2019.
