 Gaussian 09, Revision B.01,
 Gaussian 09:  EM64L-G09RevB.01 12-Aug-2010

 ----------------------------------------------------------------------
 # m062x/6-31+G(d,p) opt freq=noraman integral(ultrafinegrid) scrf=(ief
 pcm,read,solvent=methanol)
 ----------------------------------------------------------------------

 Candidate Structure: 1b, Conformer: 14 geometry optimization and frequ
 ency calculation with methanol solvation
 ----------------------------------------------------------------------
 Symbolic Z-matrix:
 Charge =  0 Multiplicity = 1

 SCF Done:  E(RM062X) =  -1394.54998767     A.U. after   16 cycles
 SCF Done:  E(RM062X) =  -1394.56303248     A.U. after   18 cycles
 SCF Done:  E(RM062X) =  -1394.55587656     A.U. after   18 cycles
 SCF Done:  E(RM062X) =  -1394.56529803     A.U. after   17 cycles
 SCF Done:  E(RM062X) =  -1394.56638283     A.U. after   17 cycles
 SCF Done:  E(RM062X) =  -1394.56620618     A.U. after   17 cycles
 SCF Done:  E(RM062X) =  -1394.56680225     A.U. after   17 cycles
 SCF Done:  E(RM062X) =  -1394.56680803     A.U. after   18 cycles
 SCF Done:  E(RM062X) =  -1394.56711140     A.U. after   14 cycles
 SCF Done:  E(RM062X) =  -1394.56725237     A.U. after   13 cycles
 SCF Done:  E(RM062X) =  -1394.56755664     A.U. after   13 cycles
 SCF Done:  E(RM062X) =  -1394.56760990     A.U. after   13 cycles
 SCF Done:  E(RM062X) =  -1394.56758987     A.U. after   14 cycles
 SCF Done:  E(RM062X) =  -1394.56770114     A.U. after   12 cycles
 SCF Done:  E(RM062X) =  -1394.56773621     A.U. after   13 cycles
 SCF Done:  E(RM062X) =  -1394.56774547     A.U. after   12 cycles
 SCF Done:  E(RM062X) =  -1394.56774665     A.U. after    9 cycles
 SCF Done:  E(RM062X) =  -1394.56774677     A.U. after   10 cycles
 SCF Done:  E(RM062X) =  -1394.56774684     A.U. after    9 cycles
 Optimization completed.
    -- Stationary point found.
 Normal termination of Gaussian 09 at Fri Mar 22 23:42:08 2019.

 ----------------------------------------------------------------------
 #N Geom=AllCheck Guess=TCheck SCRF=Check GenChk RM062X/6-31+G(d,p) Fre
 q
 ----------------------------------------------------------------------

 ency calculation with methanol solvation
 ----------------------------------------------------------------------
 Redundant internal coordinates taken from checkpoint file:
 1b-conf-14.chk
 Charge =  0 Multiplicity = 1

                         Standard orientation:
 ---------------------------------------------------------------------
 Center     Atomic      Atomic             Coordinates (Angstroms)
 Number     Number       Type             X           Y           Z
 ---------------------------------------------------------------------
      1          8           0        0.745286   -2.626201    0.264711
      2          6           0        1.628422   -1.610591    0.166276
      3          6           0        1.312142   -0.255116    0.369536
      4          6           0       -0.035943    0.199244    0.751298
      5          7           0       -0.520270    1.358913    0.536215
      6          6           0       -1.920941    1.314305    0.980174
      7          6           0       -2.864566    1.466972   -0.236397
      8          8           0       -3.013158    2.845103   -0.533438
      9          6           0       -2.409424    0.756799   -1.530689
     10          6           0       -2.398484   -0.747234   -1.485579
     11          8           0       -3.617521   -1.269194   -1.665267
     12          8           0       -1.413660   -1.434837   -1.306789
     13          6           0       -1.990389    0.028000    1.834655
     14          6           0       -3.225389   -0.842616    1.776463
     15          8           0       -0.819138   -0.707871    1.393631
     16          6           0        2.304960    0.720592    0.202926
     17          6           0        3.592993    0.348203   -0.133343
     18         17           0        4.826307    1.574443   -0.320593
     19          6           0        3.924525   -0.995312   -0.316812
     20          6           0        2.942820   -1.961928   -0.170314
     21          1           0       -0.164902   -2.293446    0.349047
     22          1           0       -2.140633    2.178045    1.616212
     23          1           0       -3.866494    1.121922    0.043346
     24          1           0       -2.134653    3.221882   -0.720601
     25          1           0       -1.399482    1.090849   -1.778744
     26          1           0       -3.103085    1.070330   -2.314831
     27          1           0       -3.557634   -2.248536   -1.634833
     28          1           0       -1.788660    0.303594    2.876996
     29          1           0       -3.454143   -1.179900    0.764290
     30          1           0       -3.089654   -1.720679    2.412109
     31          1           0       -4.083488   -0.279509    2.155110
     32          1           0        2.046693    1.764170    0.355711
     33          1           0        4.940602   -1.277985   -0.576563
     34          1           0        3.171377   -3.012553   -0.322616
 ---------------------------------------------------------------------

 SCF Done:  E(RM062X) =  -1394.56774684     A.U. after    1 cycles

 The electronic state is 1-A.
 Alpha  occ. eigenvalues -- -102.67936 -19.70554 -19.69996 -19.68067 -19.65828
 Alpha  occ. eigenvalues --  -19.65720 -14.76490 -10.70739 -10.66664 -10.63975
 Alpha  occ. eigenvalues --  -10.62482 -10.62372 -10.62156 -10.59450 -10.58732
 Alpha  occ. eigenvalues --  -10.58120 -10.58004 -10.56864 -10.56848 -10.55519
 Alpha  occ. eigenvalues --   -9.82592  -7.54989  -7.54335  -7.54327  -1.25213
 Alpha  occ. eigenvalues --   -1.23707  -1.19508  -1.16050  -1.15513  -1.03434
 Alpha  occ. eigenvalues --   -1.00638  -0.95134  -0.92163  -0.88658  -0.87217
 Alpha  occ. eigenvalues --   -0.83559  -0.81116  -0.77352  -0.73410  -0.71021
 Alpha  occ. eigenvalues --   -0.70371  -0.68617  -0.67222  -0.63791  -0.61332
 Alpha  occ. eigenvalues --   -0.59988  -0.59436  -0.58691  -0.58057  -0.56194
 Alpha  occ. eigenvalues --   -0.54999  -0.54106  -0.53725  -0.52622  -0.51950
 Alpha  occ. eigenvalues --   -0.51274  -0.50104  -0.49219  -0.48661  -0.48177
 Alpha  occ. eigenvalues --   -0.46869  -0.46393  -0.45951  -0.45818  -0.44998
 Alpha  occ. eigenvalues --   -0.43767  -0.43320  -0.41911  -0.41309  -0.40472
 Alpha  occ. eigenvalues --   -0.38855  -0.38706  -0.38354  -0.36368  -0.35787
 Alpha  occ. eigenvalues --   -0.34216  -0.31340  -0.28491
 Alpha virt. eigenvalues --   -0.02436   0.00790   0.01148   0.01728   0.02034
 Alpha virt. eigenvalues --    0.02365   0.02559   0.03163   0.03404   0.04574
 Alpha virt. eigenvalues --    0.04635   0.04821   0.05130   0.05730   0.06367

 Mulliken atomic charges:
              1
     1  O   -0.502237
     2  C   -0.486268
     3  C    0.052405
     4  C   -0.079927
     5  N   -0.217086
     6  C   -0.007045
     7  C   -0.203856
     8  O   -0.536653
     9  C   -0.149449
    10  C    0.188274
    11  O   -0.403893
    12  O   -0.421193
    13  C    0.440285
    14  C   -0.456441
    15  O   -0.221258
    16  C   -0.610049
    17  C    0.062899
    18  Cl   0.212027
    19  C   -0.413356
    20  C    0.308533
    21  H    0.433064
    22  H    0.202561
    23  H    0.185761
    24  H    0.415349
    25  H    0.209296
    26  H    0.206880
    27  H    0.443373
    28  H    0.194103
    29  H    0.159440
    30  H    0.186834
    31  H    0.189542
    32  H    0.211795
    33  H    0.206467
    34  H    0.199823
 Sum of Mulliken atomic charges =   0.00000

 Dipole moment (field-independent basis, Debye):
    X=             -4.6585    Y=             -1.6923    Z=              1.0970  Tot=              5.0763
 Quadrupole moment (field-independent basis, Debye-Ang):
   XX=           -120.1705   YY=           -126.4381   ZZ=           -119.3762
   XY=              5.4659   XZ=             -4.9824   YZ=              2.9169

  Exact polarizability: 290.570  -0.648 258.764 -20.753   0.557 169.061
 Approx polarizability: 253.955  -1.087 249.483 -16.493  -0.931 161.835

                     1                      2                      3
                     A                      A                      A
 Frequencies --    32.0322                49.3706                63.8132
 Red. masses --     8.8675                 7.2144                 6.7074
 Frc consts  --     0.0054                 0.0104                 0.0161
 IR Inten    --     0.1282                 0.2134                 0.5685

                     4                      5                      6
                     A                      A                      A
 Frequencies --    79.1987               104.4659               123.8837
 Red. masses --     6.7087                 6.2306                 5.6370
 Frc consts  --     0.0248                 0.0401                 0.0510
 IR Inten    --     3.0631                 2.5815                 4.0997

                     7                      8                      9
                     A                      A                      A
 Frequencies --   129.9084               141.6650               156.4406
 Red. masses --     5.2240                 6.8705                 5.7677
 Frc consts  --     0.0519                 0.0812                 0.0832
 IR Inten    --     1.8842                 1.9443                 2.4929

                    10                     11                     12
                     A                      A                      A
 Frequencies --   176.1741               202.4415               223.7001
 Red. masses --     4.3291                 4.1344                 1.5782
 Frc consts  --     0.0792                 0.0998                 0.0465
 IR Inten    --     0.9653                 0.6885                 0.8008

                    13                     14                     15
                     A                      A                      A
 Frequencies --   247.6952               290.9180               295.0391
 Red. masses --     2.2761                 4.6041                 5.6792
 Frc consts  --     0.0823                 0.2296                 0.2913
 IR Inten    --     1.3615                 6.4659                 5.2701

                    16                     17                     18
                     A                      A                      A
 Frequencies --   334.7919               343.2802               349.4971
 Red. masses --     5.5107                 3.5488                 2.1517
 Frc consts  --     0.3639                 0.2464                 0.1549
 IR Inten    --     3.0002                24.3163                40.1532

                    19                     20                     21
                     A                      A                      A
 Frequencies --   375.9993               390.6144               396.7643
 Red. masses --     4.7152                 3.7111                 3.4118
 Frc consts  --     0.3928                 0.3336                 0.3164
 IR Inten    --     7.8081                74.5218                46.7357

                    22                     23                     24
                     A                      A                      A
 Frequencies --   422.5549               447.4971               451.7003
 Red. masses --     1.3005                 2.3440                 3.5098
 Frc consts  --     0.1368                 0.2766                 0.4219
 IR Inten    --   231.6874                29.5198                10.7848

                    25                     26                     27
                     A                      A                      A
 Frequencies --   466.6511               502.0762               537.6664
 Red. masses --     3.3802                 3.6129                 3.6789
 Frc consts  --     0.4337                 0.5366                 0.6266
 IR Inten    --     6.6711                 4.8092                11.4776

                    28                     29                     30
                     A                      A                      A
 Frequencies --   545.7151               581.8780               616.9039
 Red. masses --     3.5708                 2.4645                 1.6370
 Frc consts  --     0.6265                 0.4916                 0.3671
 IR Inten    --     4.0947               124.9321               103.8912

                    31                     32                     33
                     A                      A                      A
 Frequencies --   637.1500               662.1847               697.8841
 Red. masses --     3.0783                 7.5704                 4.9627
 Frc consts  --     0.7363                 1.9558                 1.4241
 IR Inten    --    52.9778                36.0004                12.4854

                    34                     35                     36
                     A                      A                      A
 Frequencies --   718.5115               731.0580               754.6923
 Red. masses --     4.5242                 4.4537                 4.1388
 Frc consts  --     1.3761                 1.4024                 1.3889
 IR Inten    --    22.3681                81.4296                37.9657

                    37                     38                     39
                     A                      A                      A
 Frequencies --   768.6055               847.3969               860.7553
 Red. masses --     5.5159                 1.5432                 4.7774
 Frc consts  --     1.9199                 0.6529                 2.0855
 IR Inten    --    13.1882                55.5169                 3.8084

                    40                     41                     42
                     A                      A                      A
 Frequencies --   865.3187               906.4386               924.5252
 Red. masses --     4.2033                 2.7517                 1.4449
 Frc consts  --     1.8543                 1.3321                 0.7277
 IR Inten    --    17.1725                45.2798                16.2536

                    43                     44                     45
                     A                      A                      A
 Frequencies --   937.6486               946.3868               960.4336
 Red. masses --     3.4867                 6.6771                 2.2604
 Frc consts  --     1.8061                 3.5235                 1.2285
 IR Inten    --    17.9907                40.6233                13.0255

                    46                     47                     48
                     A                      A                      A
 Frequencies --   977.6417               985.0565              1051.5619
 Red. masses --     2.1307                 1.3303                 1.9330
 Frc consts  --     1.1999                 0.7605                 1.2594
 IR Inten    --     4.1565                 0.7515                24.8673

                    49                     50                     51
                     A                      A                      A
 Frequencies --  1057.3641              1104.3887              1111.3650
 Red. masses --     3.0776                 3.2346                 2.3023
 Frc consts  --     2.0273                 2.3244                 1.6754
 IR Inten    --    74.0555               250.2341                34.1027

                    52                     53                     54
                     A                      A                      A
 Frequencies --  1117.1229              1127.5715              1152.2020
 Red. masses --     3.1396                 2.2397                 1.5645
 Frc consts  --     2.3085                 1.6777                 1.2237
 IR Inten    --   167.9378                21.5367                87.8240

                    55                     56                     57
                     A                      A                      A
 Frequencies --  1156.5739              1171.2271              1200.3375
 Red. masses --     1.6007                 2.0921                 2.0257
 Frc consts  --     1.2615                 1.6909                 1.7196
 IR Inten    --    29.8026                72.3894                67.6391

                    58                     59                     60
                     A                      A                      A
 Frequencies --  1217.1090              1230.7425              1240.0375
 Red. masses --     1.6181                 1.4438                 1.3140
 Frc consts  --     1.4123                 1.2885                 1.1904
 IR Inten    --   124.2347               142.0185                85.5565

                    61                     62                     63
                     A                      A                      A
 Frequencies --  1275.3562              1286.6189              1313.0131
 Red. masses --     2.0567                 1.6964                 1.7303
 Frc consts  --     1.9710                 1.6546                 1.7576
 IR Inten    --    75.4561               121.3830                66.7248

                    64                     65                     66
                     A                      A                      A
 Frequencies --  1322.1289              1347.2566              1357.4861
 Red. masses --     1.5892                 1.9667                 1.7439
 Frc consts  --     1.6367                 2.1032                 1.8934
 IR Inten    --   172.3165                20.0726                19.8584

                    67                     68                     69
                     A                      A                      A
 Frequencies --  1368.4458              1382.9349              1384.8147
 Red. masses --     2.0646                 1.4314                 1.6086
 Frc consts  --     2.2780                 1.6130                 1.8175
 IR Inten    --   110.6295                56.6517                45.0879

                    70                     71                     72
                     A                      A                      A
 Frequencies --  1397.8497              1407.0864              1427.8450
 Red. masses --     2.1528                 1.6820                 1.3011
 Frc consts  --     2.4784                 1.9620                 1.5629
 IR Inten    --   161.8600                26.4808                76.3998

                    73                     74                     75
                     A                      A                      A
 Frequencies --  1430.4672              1475.9360              1489.3832
 Red. masses --     1.4793                 1.1844                 1.0710
 Frc consts  --     1.7835                 1.5201                 1.3997
 IR Inten    --    24.2025                44.7655                10.0188

                    76                     77                     78
                     A                      A                      A
 Frequencies --  1495.3656              1507.3798              1527.9395
 Red. masses --     3.2100                 1.1661                 3.3252
 Frc consts  --     4.2292                 1.5610                 4.5738
 IR Inten    --    99.2139                24.9711               344.7564

                    79                     80                     81
                     A                      A                      A
 Frequencies --  1650.0862              1694.9132              1742.0102
 Red. masses --     7.0568                 6.9779                11.0606
 Frc consts  --    11.3207                11.8106                19.7757
 IR Inten    --    28.6097                49.1696               406.9942

                    82                     83                     84
                     A                      A                      A
 Frequencies --  1823.8929              3068.3395              3088.1592
 Red. masses --    10.2480                 1.0872                 1.0391
 Frc consts  --    20.0858                 6.0308                 5.8384
 IR Inten    --   645.9584                17.3424                 7.9764

                    85                     86                     87
                     A                      A                      A
 Frequencies --  3094.4781              3097.9049              3107.4217
 Red. masses --     1.0853                 1.0864                 1.0603
 Frc consts  --     6.1234                 6.1427                 6.0322
 IR Inten    --     9.7651                25.3625                 3.2993

                    88                     89                     90
                     A                      A                      A
 Frequencies --  3161.2749              3172.2108              3193.1981
 Red. masses --     1.1022                 1.1070                 1.1002
 Frc consts  --     6.4901                 6.5633                 6.6093
 IR Inten    --    10.1205                 1.7333                 7.3219

                    91                     92                     93
                     A                      A                      A
 Frequencies --  3209.9805              3221.7453              3223.3451
 Red. masses --     1.0906                 1.0964                 1.0943
 Frc consts  --     6.6209                 6.7051                 6.6988
 IR Inten    --     0.4477                 8.9666                 5.4559

                    94                     95                     96
                     A                      A                      A
 Frequencies --  3583.6257              3695.7997              3744.6792
 Red. masses --     1.0648                 1.0667                 1.0656
 Frc consts  --     8.0569                 8.5848                 8.8041
 IR Inten    --   355.7043               160.1534               536.9848

 - Thermochemistry -
 -------------------
 Temperature   298.150 Kelvin.  Pressure   1.00000 Atm.
 Atom     1 has atomic number  8 and mass  15.99491

 Molecular mass:   299.05605 amu.
 Principal axes and moments of inertia in atomic units:
                           1         2         3
     Eigenvalues --  3356.369179544.27487**********
           X            0.99990  -0.01255  -0.00598
           Y            0.01251   0.99990  -0.00652
           Z            0.00606   0.00644   0.99996
 This molecule is an asymmetric top.
 Rotational symmetry number  1.
 Warning -- assumption of classical behavior for rotation
           may cause significant error
 Rotational temperatures (Kelvin)      0.02581     0.00907     0.00809
 Rotational constants (GHZ):           0.53771     0.18909     0.16849
 Zero-point vibrational energy     693654.6 (Joules/Mol)
                                  165.78744 (Kcal/Mol)
 Warning -- explicit consideration of  30 degrees of freedom as
           vibrations may cause significant error
 Vibrational temperatures:     46.09    71.03    91.81   113.95   150.30
          (Kelvin)            178.24   186.91   203.82   225.08   253.47
                              291.27   321.85   356.38   418.57   424.49
                              481.69   493.90   502.85   540.98   562.01
                              570.85   607.96   643.85   649.90   671.41
                              722.37   773.58   785.16   837.19   887.59
                              916.72   952.73  1004.10  1033.78  1051.83
                             1085.83  1105.85  1219.21  1238.43  1245.00
                             1304.16  1330.18  1349.07  1361.64  1381.85
                             1406.61  1417.27  1512.96  1521.31  1588.97
                             1599.00  1607.29  1622.32  1657.76  1664.05
                             1685.13  1727.02  1751.15  1770.76  1784.14
                             1834.95  1851.16  1889.13  1902.25  1938.40
                             1953.12  1968.89  1989.73  1992.44  2011.19
                             2024.48  2054.35  2058.12  2123.54  2142.89
                             2151.49  2168.78  2198.36  2374.10  2438.60
                             2506.36  2624.17  4414.65  4443.17  4452.26
                             4457.19  4470.88  4548.36  4564.10  4594.29
                             4618.44  4635.37  4637.67  5156.03  5317.42
                             5387.75

 Zero-point correction=                           0.264199 (Hartree/Particle)
 Thermal correction to Energy=                    0.282507
 Thermal correction to Enthalpy=                  0.283451
 Thermal correction to Gibbs Free Energy=         0.217534
 Sum of electronic and zero-point Energies=          -1394.303548
 Sum of electronic and thermal Energies=             -1394.285240
 Sum of electronic and thermal Enthalpies=           -1394.284295
 Sum of electronic and thermal Free Energies=        -1394.350213

                     E (Thermal)             CV                S
                      KCal/Mol        Cal/Mol-Kelvin    Cal/Mol-Kelvin
 Total                  177.276             70.183            138.735
 Electronic               0.000              0.000              0.000
 Translational            0.889              2.981             42.983
 Rotational               0.889              2.981             34.194
 Vibrational            175.498             64.221             61.557
 Vibration     1          0.594              1.983              5.699
 Vibration     2          0.595              1.978              4.842
 Vibration     3          0.597              1.972              4.336
 Vibration     4          0.600              1.963              3.911
 Vibration     5          0.605              1.946              3.369
 Vibration     6          0.610              1.929              3.039
 Vibration     7          0.612              1.923              2.947
 Vibration     8          0.615              1.912              2.781
 Vibration     9          0.620              1.895              2.592
 Vibration    10          0.628              1.872              2.369
 Vibration    11          0.639              1.836              2.111
 Vibration    12          0.649              1.805              1.929
 Vibration    13          0.661              1.767              1.747
 Vibration    14          0.687              1.691              1.469
 Vibration    15          0.689              1.683              1.445
 Vibration    16          0.716              1.606              1.237
 Vibration    17          0.722              1.589              1.197
 Vibration    18          0.727              1.576              1.168
 Vibration    19          0.747              1.521              1.055
 Vibration    20          0.758              1.490              0.998
 Vibration    21          0.763              1.477              0.975
 Vibration    22          0.785              1.421              0.883
 Vibration    23          0.807              1.366              0.803
 Vibration    24          0.810              1.357              0.791
 Vibration    25          0.824              1.324              0.747
 Vibration    26          0.857              1.245              0.653
 Vibration    27          0.893              1.167              0.570
 Vibration    28          0.901              1.149              0.553
 Vibration    29          0.939              1.071              0.482
 Vibration    30          0.977              0.996              0.421

 Optimization completed.
    -- Stationary point found.
 Normal termination of Gaussian 09 at Sat Mar 23 00:08:02 2019.
