 Gaussian 09, Revision B.01,
 Gaussian 09:  EM64L-G09RevB.01 12-Aug-2010

 ----------------------------------------------------------------------
 # m062x/6-31+G(d,p) opt freq=noraman integral(ultrafinegrid) scrf=(ief
 pcm,read,solvent=methanol)
 ----------------------------------------------------------------------

 Candidate Structure: 1b, Conformer: 10 geometry optimization and frequ
 ency calculation with methanol solvation
 ----------------------------------------------------------------------
 Symbolic Z-matrix:
 Charge =  0 Multiplicity = 1

 SCF Done:  E(RM062X) =  -1394.54619532     A.U. after   15 cycles
 SCF Done:  E(RM062X) =  -1394.56186009     A.U. after   14 cycles
 SCF Done:  E(RM062X) =  -1394.56313879     A.U. after   16 cycles
 SCF Done:  E(RM062X) =  -1394.56342418     A.U. after   14 cycles
 SCF Done:  E(RM062X) =  -1394.56394669     A.U. after   14 cycles
 SCF Done:  E(RM062X) =  -1394.56406470     A.U. after   13 cycles
 SCF Done:  E(RM062X) =  -1394.56379465     A.U. after   14 cycles
 SCF Done:  E(RM062X) =  -1394.56421942     A.U. after   14 cycles
 SCF Done:  E(RM062X) =  -1394.56445033     A.U. after   13 cycles
 SCF Done:  E(RM062X) =  -1394.56455867     A.U. after   13 cycles
 SCF Done:  E(RM062X) =  -1394.56458311     A.U. after   13 cycles
 SCF Done:  E(RM062X) =  -1394.56460545     A.U. after   11 cycles
 SCF Done:  E(RM062X) =  -1394.56462106     A.U. after   11 cycles
 SCF Done:  E(RM062X) =  -1394.56462454     A.U. after   11 cycles
 SCF Done:  E(RM062X) =  -1394.56462653     A.U. after   11 cycles
 SCF Done:  E(RM062X) =  -1394.56462713     A.U. after   10 cycles
 SCF Done:  E(RM062X) =  -1394.56462730     A.U. after    9 cycles
 SCF Done:  E(RM062X) =  -1394.56462736     A.U. after    8 cycles
 Optimization completed.
    -- Stationary point found.
 Normal termination of Gaussian 09 at Fri Mar 22 22:49:28 2019.

 ----------------------------------------------------------------------
 #N Geom=AllCheck Guess=TCheck SCRF=Check GenChk RM062X/6-31+G(d,p) Fre
 q
 ----------------------------------------------------------------------

 ency calculation with methanol solvation
 ----------------------------------------------------------------------
 Redundant internal coordinates taken from checkpoint file:
 1b-conf-10.chk
 Charge =  0 Multiplicity = 1

                         Standard orientation:
 ---------------------------------------------------------------------
 Center     Atomic      Atomic             Coordinates (Angstroms)
 Number     Number       Type             X           Y           Z
 ---------------------------------------------------------------------
      1          8           0        1.969880    2.713487   -0.159788
      2          6           0        2.638893    1.538841   -0.142254
      3          6           0        1.898026    0.345461   -0.156145
      4          6           0        0.423802    0.338355   -0.227435
      5          7           0       -0.337521   -0.442319    0.435307
      6          6           0       -1.698486   -0.188889   -0.071195
      7          6           0       -2.728522   -0.387157    1.039999
      8          8           0       -2.496107    0.455098    2.153761
      9          6           0       -4.160546   -0.130528    0.587119
     10          6           0       -4.682405   -1.170184   -0.372084
     11          8           0       -5.866528   -0.817765   -0.883761
     12          8           0       -4.129153   -2.212931   -0.648835
     13          6           0       -1.573883    1.187794   -0.764359
     14          6           0       -1.834281    2.440271    0.058253
     15          8           0       -0.156945    1.190063   -1.104679
     16          6           0        2.560948   -0.882519   -0.076441
     17          6           0        3.945243   -0.918761   -0.005864
     18         17           0        4.764300   -2.461264    0.082007
     19          6           0        4.690560    0.257277   -0.008222
     20          6           0        4.034419    1.480267   -0.072183
     21          1           0        2.593218    3.461067   -0.107037
     22          1           0       -1.910218   -0.951237   -0.835125
     23          1           0       -2.648799   -1.440318    1.345334
     24          1           0       -1.591978    0.289648    2.471911
     25          1           0       -4.282905    0.856930    0.131014
     26          1           0       -4.815824   -0.144639    1.466455
     27          1           0       -6.182544   -1.530791   -1.478232
     28          1           0       -2.124339    1.214884   -1.708151
     29          1           0       -1.214086    2.446646    0.957022
     30          1           0       -1.585942    3.314573   -0.548708
     31          1           0       -2.878602    2.509904    0.368296
     32          1           0        1.978849   -1.799387   -0.078700
     33          1           0        5.774763    0.219945    0.044469
     34          1           0        4.606165    2.405515   -0.058541
 ---------------------------------------------------------------------

 SCF Done:  E(RM062X) =  -1394.56462736     A.U. after    1 cycles

 The electronic state is 1-A.
 Alpha  occ. eigenvalues -- -102.67986 -19.70104 -19.68891 -19.68695 -19.65463
 Alpha  occ. eigenvalues --  -19.65102 -14.76093 -10.70497 -10.65971 -10.64072
 Alpha  occ. eigenvalues --  -10.62256 -10.61645 -10.61327 -10.58692 -10.58597
 Alpha  occ. eigenvalues --  -10.58250 -10.58188 -10.57293 -10.57200 -10.54117
 Alpha  occ. eigenvalues --   -9.82644  -7.55043  -7.54387  -7.54379  -1.24828
 Alpha  occ. eigenvalues --   -1.22742  -1.19954  -1.15551  -1.15178  -1.02638
 Alpha  occ. eigenvalues --   -1.00710  -0.95159  -0.91787  -0.89023  -0.86589
 Alpha  occ. eigenvalues --   -0.83581  -0.80927  -0.76396  -0.73322  -0.71315
 Alpha  occ. eigenvalues --   -0.70475  -0.66605  -0.64942  -0.63918  -0.61885
 Alpha  occ. eigenvalues --   -0.59708  -0.58775  -0.58034  -0.57621  -0.56924
 Alpha  occ. eigenvalues --   -0.55027  -0.54361  -0.53660  -0.52346  -0.51560
 Alpha  occ. eigenvalues --   -0.51200  -0.49876  -0.48853  -0.47939  -0.47459
 Alpha  occ. eigenvalues --   -0.46451  -0.45999  -0.45518  -0.45206  -0.44626
 Alpha  occ. eigenvalues --   -0.43077  -0.42495  -0.42238  -0.40864  -0.40496
 Alpha  occ. eigenvalues --   -0.39052  -0.38704  -0.37092  -0.36787  -0.34448
 Alpha  occ. eigenvalues --   -0.33853  -0.31414  -0.28687
 Alpha virt. eigenvalues --   -0.02023   0.00669   0.01144   0.01620   0.01995
 Alpha virt. eigenvalues --    0.02426   0.02983   0.03066   0.03716   0.04047
 Alpha virt. eigenvalues --    0.04636   0.04918   0.05405   0.05674   0.05955

 Mulliken atomic charges:
              1
     1  O   -0.550944
     2  C   -0.810889
     3  C    0.201718
     4  C    0.812646
     5  N   -0.352145
     6  C   -0.243643
     7  C   -0.194859
     8  O   -0.544258
     9  C   -0.222703
    10  C    0.472511
    11  O   -0.484602
    12  O   -0.488155
    13  C   -0.136152
    14  C   -0.270101
    15  O   -0.275895
    16  C   -0.500378
    17  C    0.215330
    18  Cl   0.211948
    19  C   -0.506684
    20  C    0.230605
    21  H    0.455560
    22  H    0.199809
    23  H    0.170652
    24  H    0.419431
    25  H    0.197441
    26  H    0.227421
    27  H    0.437581
    28  H    0.191939
    29  H    0.185308
    30  H    0.169026
    31  H    0.163371
    32  H    0.214668
    33  H    0.208668
    34  H    0.195775
 Sum of Mulliken atomic charges =   0.00000

 Dipole moment (field-independent basis, Debye):
    X=              0.0055    Y=              5.0848    Z=             -1.2391  Tot=              5.2336
 Quadrupole moment (field-independent basis, Debye-Ang):
   XX=            -96.6027   YY=           -120.0972   ZZ=           -126.5972
   XY=             19.5675   XZ=              9.3167   YZ=              0.6126

  Exact polarizability: 287.600 -10.987 259.073   5.147  -4.177 165.506
 Approx polarizability: 246.974 -10.217 246.487   2.742  -5.529 163.515

                     1                      2                      3
                     A                      A                      A
 Frequencies --     9.5355                31.0784                35.9558
 Red. masses --     6.3338                 8.2662                 8.0206
 Frc consts  --     0.0003                 0.0047                 0.0061
 IR Inten    --     0.2758                 2.1029                 0.3750

                     4                      5                      6
                     A                      A                      A
 Frequencies --    47.2800                73.1576                91.0477
 Red. masses --     8.1679                 4.9627                 4.4639
 Frc consts  --     0.0108                 0.0156                 0.0218
 IR Inten    --     1.2353                 2.5778                 4.6766

                     7                      8                      9
                     A                      A                      A
 Frequencies --   119.9432               137.6152               158.2581
 Red. masses --     7.3850                 6.5579                 5.9539
 Frc consts  --     0.0626                 0.0732                 0.0879
 IR Inten    --     0.4159                 0.4895                 5.7869

                    10                     11                     12
                     A                      A                      A
 Frequencies --   177.6922               197.0733               237.4101
 Red. masses --     3.1443                 5.4968                 3.2923
 Frc consts  --     0.0585                 0.1258                 0.1093
 IR Inten    --     2.9931                 8.5502                 5.4662

                    13                     14                     15
                     A                      A                      A
 Frequencies --   252.4160               275.9087               279.7639
 Red. masses --     2.1121                 2.0522                 5.1699
 Frc consts  --     0.0793                 0.0920                 0.2384
 IR Inten    --     5.9082                 2.9537                 4.8851

                    16                     17                     18
                     A                      A                      A
 Frequencies --   304.9697               332.0975               348.7599
 Red. masses --     3.8511                 4.7801                 1.3681
 Frc consts  --     0.2110                 0.3106                 0.0980
 IR Inten    --     1.4008                 4.6784               120.4298

                    19                     20                     21
                     A                      A                      A
 Frequencies --   363.0699               369.7632               384.8107
 Red. masses --     2.8275                 1.3010                 8.6949
 Frc consts  --     0.2196                 0.1048                 0.7586
 IR Inten    --    77.1643               200.4514                 4.9781

                    22                     23                     24
                     A                      A                      A
 Frequencies --   393.7500               399.0744               446.8643
 Red. masses --     4.0970                 5.1484                 3.7181
 Frc consts  --     0.3742                 0.4831                 0.4374
 IR Inten    --    47.7742                12.5930                 1.3963

                    25                     26                     27
                     A                      A                      A
 Frequencies --   478.8495               505.6025               521.9056
 Red. masses --     3.6843                 1.4301                 3.7838
 Frc consts  --     0.4977                 0.2154                 0.6072
 IR Inten    --     4.9557                41.4874                25.7220

                    28                     29                     30
                     A                      A                      A
 Frequencies --   550.3989               598.8447               611.3397
 Red. masses --     3.4137                 3.6070                 1.8398
 Frc consts  --     0.6093                 0.7621                 0.4051
 IR Inten    --    60.7612                 6.9951               186.0750

                    31                     32                     33
                     A                      A                      A
 Frequencies --   644.0173               662.2674               680.1269
 Red. masses --     3.6367                 7.7054                 4.5314
 Frc consts  --     0.8887                 1.9912                 1.2350
 IR Inten    --    75.6694                28.7995                 9.5756

                    34                     35                     36
                     A                      A                      A
 Frequencies --   703.1887               731.3740               765.8590
 Red. masses --     5.1045                 5.9521                 4.5934
 Frc consts  --     1.4871                 1.8759                 1.5874
 IR Inten    --     9.2017                61.8933                 2.6499

                    37                     38                     39
                     A                      A                      A
 Frequencies --   779.9570               813.2891               839.5874
 Red. masses --     2.8412                 4.3169                 1.5632
 Frc consts  --     1.0183                 1.6823                 0.6492
 IR Inten    --    13.1151                15.2183                65.0043

                    40                     41                     42
                     A                      A                      A
 Frequencies --   857.7944               906.6210               922.2100
 Red. masses --     6.1858                 2.4424                 1.8093
 Frc consts  --     2.6817                 1.1828                 0.9066
 IR Inten    --     6.6572                53.8864                24.8350

                    43                     44                     45
                     A                      A                      A
 Frequencies --   925.3249               931.9612               961.9113
 Red. masses --     2.5388                 2.8106                 4.0314
 Frc consts  --     1.2807                 1.4383                 2.1977
 IR Inten    --     1.0954                38.8076                 8.8496

                    46                     47                     48
                     A                      A                      A
 Frequencies --   976.5354              1013.0284              1034.5527
 Red. masses --     1.3460                 2.6058                 2.6609
 Frc consts  --     0.7562                 1.5756                 1.6780
 IR Inten    --     0.3797                43.1442                25.5062

                    49                     50                     51
                     A                      A                      A
 Frequencies --  1076.7020              1083.1585              1105.5540
 Red. masses --     1.8940                 2.1033                 2.5323
 Frc consts  --     1.2937                 1.4539                 1.8236
 IR Inten    --    39.1175               103.2133                33.7345

                    52                     53                     54
                     A                      A                      A
 Frequencies --  1115.7319              1131.7406              1148.4077
 Red. masses --     2.3291                 2.3672                 2.5692
 Frc consts  --     1.7083                 1.7864                 1.9963
 IR Inten    --     3.3538                54.7523               269.6833

                    55                     56                     57
                     A                      A                      A
 Frequencies --  1157.0772              1169.2953              1189.4832
 Red. masses --     1.5834                 1.7074                 1.8440
 Frc consts  --     1.2490                 1.3754                 1.5372
 IR Inten    --   154.9664                21.9301               172.3066

                    58                     59                     60
                     A                      A                      A
 Frequencies --  1193.7338              1228.2905              1269.6397
 Red. masses --     1.3765                 1.5965                 1.2387
 Frc consts  --     1.1557                 1.4191                 1.1764
 IR Inten    --    99.2282                58.6992                54.1001

                    61                     62                     63
                     A                      A                      A
 Frequencies --  1285.9308              1299.3118              1300.7157
 Red. masses --     1.7811                 1.5945                 1.5703
 Frc consts  --     1.7353                 1.5859                 1.5653
 IR Inten    --    55.8265                43.4419                46.7527

                    64                     65                     66
                     A                      A                      A
 Frequencies --  1314.2083              1324.2567              1354.2961
 Red. masses --     1.3308                 2.5714                 2.7237
 Frc consts  --     1.3542                 2.6569                 2.9433
 IR Inten    --    19.9422               227.0710                29.2604

                    67                     68                     69
                     A                      A                      A
 Frequencies --  1363.2893              1376.9270              1379.6150
 Red. masses --     1.8751                 2.8593                 1.3558
 Frc consts  --     2.0533                 3.1940                 1.5204
 IR Inten    --    15.4076               123.1395                 6.7709

                    70                     71                     72
                     A                      A                      A
 Frequencies --  1406.5427              1418.2414              1425.1535
 Red. masses --     1.4334                 2.1018                 1.4183
 Frc consts  --     1.6708                 2.4908                 1.6972
 IR Inten    --     8.2581               136.1573                40.4197

                    73                     74                     75
                     A                      A                      A
 Frequencies --  1453.8658              1464.8887              1478.7070
 Red. masses --     1.3400                 1.6042                 2.2594
 Frc consts  --     1.6688                 2.0283                 2.9107
 IR Inten    --    57.9904                86.6894               186.3014

                    76                     77                     78
                     A                      A                      A
 Frequencies --  1479.3171              1491.9222              1539.4877
 Red. masses --     1.4605                 1.0695                 3.1774
 Frc consts  --     1.8830                 1.4026                 4.4368
 IR Inten    --   136.2979                41.1679               186.0436

                    79                     80                     81
                     A                      A                      A
 Frequencies --  1662.8239              1684.2925              1738.0242
 Red. masses --     7.1242                 7.5151                11.2202
 Frc consts  --    11.6059                12.5609                19.9693
 IR Inten    --     4.2399                64.3397               449.3150

                    82                     83                     84
                     A                      A                      A
 Frequencies --  1829.5753              3043.1201              3050.8277
 Red. masses --    10.7592                 1.0838                 1.0855
 Frc consts  --    21.2193                 5.9134                 5.9526
 IR Inten    --   560.0271                 6.1382                35.0892

                    85                     86                     87
                     A                      A                      A
 Frequencies --  3085.4114              3088.5487              3118.4531
 Red. masses --     1.0574                 1.0425                 1.0893
 Frc consts  --     5.9310                 5.8593                 6.2413
 IR Inten    --     5.8931                12.9697                12.2137

                    88                     89                     90
                     A                      A                      A
 Frequencies --  3137.0579              3169.3650              3181.7786
 Red. masses --     1.0991                 1.1027                 1.1022
 Frc consts  --     6.3727                 6.5259                 6.5742
 IR Inten    --     5.0412                20.7944                23.2465

                    91                     92                     93
                     A                      A                      A
 Frequencies --  3193.2288              3216.7868              3220.7190
 Red. masses --     1.0920                 1.0960                 1.0937
 Frc consts  --     6.5603                 6.6820                 6.6844
 IR Inten    --     1.2744                 5.1789                 7.1245

                    94                     95                     96
                     A                      A                      A
 Frequencies --  3598.5017              3676.5321              3723.2024
 Red. masses --     1.0649                 1.0668                 1.0663
 Frc consts  --     8.1244                 8.4957                 8.7088
 IR Inten    --   323.4848               418.9212               169.0781

 - Thermochemistry -
 -------------------
 Temperature   298.150 Kelvin.  Pressure   1.00000 Atm.
 Atom     1 has atomic number  8 and mass  15.99491

 Molecular mass:   299.05605 amu.
 Principal axes and moments of inertia in atomic units:
                           1         2         3
     Eigenvalues --  3016.80965********************
           X            0.99997   0.00786  -0.00090
           Y           -0.00786   0.99997   0.00193
           Z            0.00091  -0.00192   1.00000
 This molecule is an asymmetric top.
 Rotational symmetry number  1.
 Warning -- assumption of classical behavior for rotation
           may cause significant error
 Rotational temperatures (Kelvin)      0.02871     0.00667     0.00583
 Rotational constants (GHZ):           0.59823     0.13902     0.12153
 Zero-point vibrational energy     689812.1 (Joules/Mol)
                                  164.86906 (Kcal/Mol)
 Warning -- explicit consideration of  30 degrees of freedom as
           vibrations may cause significant error
 Vibrational temperatures:     13.72    44.71    51.73    68.03   105.26
          (Kelvin)            131.00   172.57   198.00   227.70   255.66
                              283.54   341.58   363.17   396.97   402.52
                              438.78   477.81   501.79   522.38   532.01
                              553.66   566.52   574.18   642.94   688.96
                              727.45   750.90   791.90   861.60   879.58
                              926.60   952.85   978.55  1011.73  1052.28
                             1101.90  1122.18  1170.14  1207.98  1234.17
                             1304.42  1326.85  1331.33  1340.88  1383.97
                             1405.01  1457.52  1488.49  1549.13  1558.42
                             1590.64  1605.29  1628.32  1652.30  1664.77
                             1682.35  1711.40  1717.51  1767.23  1826.73
                             1850.17  1869.42  1871.44  1890.85  1905.31
                             1948.53  1961.47  1981.09  1984.96  2023.70
                             2040.53  2050.48  2091.79  2107.65  2127.53
                             2128.40  2146.54  2214.98  2392.43  2423.32
                             2500.63  2632.35  4378.37  4389.46  4439.21
                             4443.73  4486.75  4513.52  4560.00  4577.86
                             4594.34  4628.23  4633.89  5177.43  5289.70
                             5356.85

 Zero-point correction=                           0.262736 (Hartree/Particle)
 Thermal correction to Energy=                    0.281604
 Thermal correction to Enthalpy=                  0.282549
 Thermal correction to Gibbs Free Energy=         0.212708
 Sum of electronic and zero-point Energies=          -1394.301892
 Sum of electronic and thermal Energies=             -1394.283023
 Sum of electronic and thermal Enthalpies=           -1394.282079
 Sum of electronic and thermal Free Energies=        -1394.351919

                     E (Thermal)             CV                S
                      KCal/Mol        Cal/Mol-Kelvin    Cal/Mol-Kelvin
 Total                  176.709             70.787            146.992
 Electronic               0.000              0.000              0.000
 Translational            0.889              2.981             42.983
 Rotational               0.889              2.981             34.719
 Vibrational            174.932             64.825             69.289
 Vibration     1          0.593              1.987              8.106
 Vibration     2          0.594              1.983              5.759
 Vibration     3          0.594              1.982              5.470
 Vibration     4          0.595              1.979              4.928
 Vibration     5          0.599              1.967              4.067
 Vibration     6          0.602              1.956              3.637
 Vibration     7          0.609              1.933              3.101
 Vibration     8          0.614              1.916              2.837
 Vibration     9          0.621              1.893              2.571
 Vibration    10          0.628              1.870              2.353
 Vibration    11          0.636              1.844              2.160
 Vibration    12          0.656              1.783              1.822
 Vibration    13          0.664              1.759              1.714
 Vibration    14          0.678              1.718              1.559
 Vibration    15          0.680              1.711              1.535
 Vibration    16          0.696              1.664              1.389
 Vibration    17          0.714              1.611              1.250
 Vibration    18          0.726              1.578              1.172
 Vibration    19          0.737              1.548              1.109
 Vibration    20          0.742              1.534              1.081
 Vibration    21          0.754              1.503              1.020
 Vibration    22          0.761              1.484              0.986
 Vibration    23          0.765              1.472              0.966
 Vibration    24          0.806              1.368              0.805
 Vibration    25          0.835              1.297              0.713
 Vibration    26          0.861              1.238              0.644
 Vibration    27          0.877              1.201              0.606
 Vibration    28          0.906              1.139              0.543
 Vibration    29          0.957              1.034              0.452
 Vibration    30          0.970              1.008              0.431

 Normal termination of Gaussian 09 at Fri Mar 22 23:13:15 2019.
