 Gaussian 09, Revision B.01,
 Gaussian 09:  EM64L-G09RevB.01 12-Aug-2010

 ----------------------------------------------------------------------
 # m062x/6-31+G(d,p) opt freq=noraman integral(ultrafinegrid) scrf=(ief
 pcm,read,solvent=methanol)
 ----------------------------------------------------------------------

 Candidate Structure: 1b, Conformer: 1 geometry optimization and freque
 ncy calculation with methanol solvation
 ----------------------------------------------------------------------
 Symbolic Z-matrix:
 Charge =  0 Multiplicity = 1

 SCF Done:  E(RM062X) =  -1394.55865931     A.U. after   16 cycles
 SCF Done:  E(RM062X) =  -1394.57373642     A.U. after   14 cycles
 SCF Done:  E(RM062X) =  -1394.57509645     A.U. after   14 cycles
 SCF Done:  E(RM062X) =  -1394.57554714     A.U. after   14 cycles
 SCF Done:  E(RM062X) =  -1394.57579412     A.U. after   14 cycles
 SCF Done:  E(RM062X) =  -1394.57608641     A.U. after   13 cycles
 SCF Done:  E(RM062X) =  -1394.57581529     A.U. after   12 cycles
 SCF Done:  E(RM062X) =  -1394.57587874     A.U. after   13 cycles
 SCF Done:  E(RM062X) =  -1394.57590270     A.U. after   13 cycles
 SCF Done:  E(RM062X) =  -1394.57619692     A.U. after   11 cycles
 SCF Done:  E(RM062X) =  -1394.57619870     A.U. after   11 cycles
 SCF Done:  E(RM062X) =  -1394.57619944     A.U. after    9 cycles
 SCF Done:  E(RM062X) =  -1394.57619948     A.U. after    7 cycles
 Optimization completed.
    -- Stationary point found.
 Normal termination of Gaussian 09 at Fri Mar 22 23:51:45 2019.

 ----------------------------------------------------------------------
 #N Geom=AllCheck Guess=TCheck SCRF=Check GenChk RM062X/6-31+G(d,p) Fre
 q
 ----------------------------------------------------------------------

 ncy calculation with methanol solvation
 ----------------------------------------------------------------------
 Redundant internal coordinates taken from checkpoint file:
 1b-conf-1.chk
 Charge =  0 Multiplicity = 1

                         Standard orientation:
 ---------------------------------------------------------------------
 Center     Atomic      Atomic             Coordinates (Angstroms)
 Number     Number       Type             X           Y           Z
 ---------------------------------------------------------------------
      1          8           0       -1.327118    2.662335    0.148357
      2          6           0       -2.227688    1.674227    0.025940
      3          6           0       -1.859266    0.318566   -0.102720
      4          6           0       -0.442382   -0.041247   -0.118092
      5          7           0        0.522722    0.793746    0.011002
      6          6           0        1.763582    0.027336   -0.178073
      7          6           0        2.886497    0.602383    0.686055
      8          8           0        2.571197    0.592960    2.064967
      9          6           0        4.206375   -0.142610    0.529114
     10          6           0        4.854194    0.063812   -0.816980
     11          8           0        5.931008   -0.713318   -0.968622
     12          8           0        4.476943    0.842495   -1.666195
     13          6           0        1.304342   -1.436812    0.033428
     14          6           0        1.394233   -2.032799    1.428614
     15          8           0       -0.117926   -1.336458   -0.293941
     16          6           0       -2.844136   -0.671032   -0.222092
     17          6           0       -4.178239   -0.307544   -0.215020
     18         17           0       -5.410406   -1.539790   -0.365753
     19          6           0       -4.558044    1.031363   -0.089904
     20          6           0       -3.586801    2.013203    0.029723
     21          1           0       -0.416197    2.270137    0.123678
     22          1           0        2.073146    0.156171   -1.224828
     23          1           0        3.034107    1.635903    0.341671
     24          1           0        1.768469    1.125759    2.198783
     25          1           0        4.103297   -1.218473    0.703268
     26          1           0        4.908509    0.223769    1.287387
     27          1           0        6.335299   -0.532474   -1.843692
     28          1           0        1.746184   -2.104434   -0.709990
     29          1           0        0.877425   -1.401856    2.154522
     30          1           0        0.930313   -3.022269    1.416772
     31          1           0        2.430943   -2.135764    1.754076
     32          1           0       -2.549768   -1.711667   -0.319476
     33          1           0       -5.610819    1.299249   -0.086413
     34          1           0       -3.861890    3.058980    0.128537
 ---------------------------------------------------------------------

 SCF Done:  E(RM062X) =  -1394.57619948     A.U. after    1 cycles

 The electronic state is 1-A.
 Alpha  occ. eigenvalues -- -102.67973 -19.70194 -19.70096 -19.67630 -19.65577
 Alpha  occ. eigenvalues --  -19.65412 -14.77502 -10.70621 -10.67208 -10.64033
 Alpha  occ. eigenvalues --  -10.62476 -10.62252 -10.61750 -10.59578 -10.58749
 Alpha  occ. eigenvalues --  -10.58395 -10.58214 -10.57416 -10.56932 -10.54624
 Alpha  occ. eigenvalues --   -9.82629  -7.55027  -7.54372  -7.54364  -1.24941
 Alpha  occ. eigenvalues --   -1.23949  -1.19528  -1.15874  -1.15326  -1.03755
 Alpha  occ. eigenvalues --   -1.00812  -0.95241  -0.92368  -0.89410  -0.86809
 Alpha  occ. eigenvalues --   -0.83632  -0.81536  -0.76865  -0.73443  -0.71986
 Alpha  occ. eigenvalues --   -0.69575  -0.67989  -0.65941  -0.63317  -0.61933
 Alpha  occ. eigenvalues --   -0.60263  -0.59170  -0.58823  -0.57686  -0.56881
 Alpha  occ. eigenvalues --   -0.55208  -0.54635  -0.53816  -0.52747  -0.52446
 Alpha  occ. eigenvalues --   -0.51365  -0.50014  -0.49070  -0.48165  -0.47633
 Alpha  occ. eigenvalues --   -0.46947  -0.46093  -0.45873  -0.45604  -0.44863
 Alpha  occ. eigenvalues --   -0.44305  -0.43763  -0.42421  -0.41198  -0.40720
 Alpha  occ. eigenvalues --   -0.38908  -0.38755  -0.37523  -0.37204  -0.35236
 Alpha  occ. eigenvalues --   -0.34499  -0.31893  -0.28472
 Alpha virt. eigenvalues --   -0.02991   0.00692   0.01139   0.01634   0.02041
 Alpha virt. eigenvalues --    0.02567   0.02712   0.03418   0.03625   0.04556
 Alpha virt. eigenvalues --    0.04587   0.04845   0.05252   0.05466   0.06382

 Mulliken atomic charges:
              1
     1  O   -0.550536
     2  C   -0.552118
     3  C    0.088727
     4  C    0.765495
     5  N   -0.401893
     6  C   -0.363818
     7  C   -0.099175
     8  O   -0.546029
     9  C   -0.254216
    10  C    0.471558
    11  O   -0.481443
    12  O   -0.487372
    13  C   -0.078616
    14  C   -0.312389
    15  O   -0.326837
    16  C   -0.596343
    17  C    0.139173
    18  Cl   0.211576
    19  C   -0.526039
    20  C    0.414200
    21  H    0.458678
    22  H    0.211482
    23  H    0.173784
    24  H    0.424523
    25  H    0.199164
    26  H    0.229612
    27  H    0.438382
    28  H    0.199183
    29  H    0.183556
    30  H    0.172820
    31  H    0.168754
    32  H    0.218831
    33  H    0.207602
    34  H    0.199724
 Sum of Mulliken atomic charges =   0.00000

 Dipole moment (field-independent basis, Debye):
    X=              3.8746    Y=             -1.9299    Z=              0.1657  Tot=              4.3318
 Quadrupole moment (field-independent basis, Debye-Ang):
   XX=           -112.1518   YY=           -126.6696   ZZ=           -128.2323
   XY=            -14.1250   XZ=             -6.9154   YZ=              4.3015

  Exact polarizability: 309.600   5.589 244.787   2.098   2.364 166.521
 Approx polarizability: 261.834   7.422 238.318   3.628   2.486 163.258

                     1                      2                      3
                     A                      A                      A
 Frequencies --    26.0342                32.7516                39.6392
 Red. masses --     8.0606                 7.9682                 8.4822
 Frc consts  --     0.0032                 0.0050                 0.0079
 IR Inten    --     0.0459                 0.6610                 1.0383

                     4                      5                      6
                     A                      A                      A
 Frequencies --    59.0618                81.1888                94.2364
 Red. masses --     7.0951                 4.1313                 4.9002
 Frc consts  --     0.0146                 0.0160                 0.0256
 IR Inten    --     1.5085                 1.3549                 2.4031

                     7                      8                      9
                     A                      A                      A
 Frequencies --   120.6761               138.7967               163.3958
 Red. masses --     7.5665                 8.5205                 5.7877
 Frc consts  --     0.0649                 0.0967                 0.0910
 IR Inten    --     0.4230                 1.8572                 3.0228

                    10                     11                     12
                     A                      A                      A
 Frequencies --   180.6197               204.5111               232.6542
 Red. masses --     3.3486                 4.9207                 4.9059
 Frc consts  --     0.0644                 0.1213                 0.1565
 IR Inten    --     6.0471                 8.2097                 2.7507

                    13                     14                     15
                     A                      A                      A
 Frequencies --   258.5624               278.3586               285.7592
 Red. masses --     1.3152                 2.7934                 3.9268
 Frc consts  --     0.0518                 0.1275                 0.1889
 IR Inten    --     9.2424                 2.6540                18.6886

                    16                     17                     18
                     A                      A                      A
 Frequencies --   323.1529               337.9353               345.0503
 Red. masses --     5.5502                 2.3545                 1.7106
 Frc consts  --     0.3415                 0.1584                 0.1200
 IR Inten    --     7.6021                68.8522               174.4767

                    19                     20                     21
                     A                      A                      A
 Frequencies --   351.7176               385.2416               391.6298
 Red. masses --     5.4434                 9.9557                 5.7587
 Frc consts  --     0.3967                 0.8705                 0.5204
 IR Inten    --     2.5134                 0.3511                20.8964

                    22                     23                     24
                     A                      A                      A
 Frequencies --   429.7467               438.8935               472.1934
 Red. masses --     3.8830                 5.5750                 3.5497
 Frc consts  --     0.4225                 0.6327                 0.4663
 IR Inten    --     6.6159                11.3827                 0.6863

                    25                     26                     27
                     A                      A                      A
 Frequencies --   507.3270               539.6160               553.6011
 Red. masses --     1.4827                 3.9478                 3.5235
 Frc consts  --     0.2248                 0.6773                 0.6362
 IR Inten    --    35.8509                 6.3059                35.2757

                    28                     29                     30
                     A                      A                      A
 Frequencies --   572.0964               615.5426               644.5954
 Red. masses --     3.5246                 1.7111                 3.6056
 Frc consts  --     0.6797                 0.3820                 0.8827
 IR Inten    --    41.1826               182.3213                75.3012

                    31                     32                     33
                     A                      A                      A
 Frequencies --   659.6595               682.4793               697.5469
 Red. masses --     7.6343                 4.3707                 4.6284
 Frc consts  --     1.9573                 1.1995                 1.3269
 IR Inten    --    29.3654                 7.5723                 4.1445

                    34                     35                     36
                     A                      A                      A
 Frequencies --   732.8484               737.8897               767.9739
 Red. masses --     5.5766                 1.1575                 4.2606
 Frc consts  --     1.7646                 0.3713                 1.4805
 IR Inten    --    87.8037               133.8773                29.3827

                    37                     38                     39
                     A                      A                      A
 Frequencies --   786.5131               809.9642               850.3776
 Red. masses --     2.8697                 4.3507                 1.5204
 Frc consts  --     1.0459                 1.6817                 0.6478
 IR Inten    --    29.1124                20.4902                43.2396

                    40                     41                     42
                     A                      A                      A
 Frequencies --   860.0432               907.0780               923.0306
 Red. masses --     5.8932                 2.8077                 1.5810
 Frc consts  --     2.5683                 1.3611                 0.7936
 IR Inten    --     0.8172                26.7174                28.7473

                    43                     44                     45
                     A                      A                      A
 Frequencies --   924.6237               929.7770               969.1804
 Red. masses --     2.6558                 2.8606                 4.4173
 Frc consts  --     1.3378                 1.4570                 2.4447
 IR Inten    --     6.9016                23.9237                 5.4466

                    46                     47                     48
                     A                      A                      A
 Frequencies --   987.0072              1014.9773              1047.0704
 Red. masses --     1.3288                 2.6131                 2.5525
 Frc consts  --     0.7627                 1.5860                 1.6488
 IR Inten    --     0.3782                33.3216                51.6734

                    49                     50                     51
                     A                      A                      A
 Frequencies --  1074.2239              1081.3114              1102.5248
 Red. masses --     1.9165                 1.9478                 2.5772
 Frc consts  --     1.3030                 1.3418                 1.8458
 IR Inten    --    34.5064                89.5581                98.9274

                    52                     53                     54
                     A                      A                      A
 Frequencies --  1115.7939              1129.3963              1150.1880
 Red. masses --     2.4225                 2.0846                 2.6405
 Frc consts  --     1.7769                 1.5666                 2.0581
 IR Inten    --    24.3392                79.8253               310.1702

                    55                     56                     57
                     A                      A                      A
 Frequencies --  1164.3909              1170.1802              1191.1075
 Red. masses --     1.6558                 1.6170                 1.9403
 Frc consts  --     1.3227                 1.3046                 1.6219
 IR Inten    --    84.6383                 2.3187               101.7931

                    58                     59                     60
                     A                      A                      A
 Frequencies --  1228.1689              1246.8896              1269.8222
 Red. masses --     1.6222                 1.5960                 1.2457
 Frc consts  --     1.4417                 1.4620                 1.1834
 IR Inten    --    37.5043               223.0523                56.2647

                    61                     62                     63
                     A                      A                      A
 Frequencies --  1279.8170              1300.5720              1309.0135
 Red. masses --     2.1475                 1.5289                 1.6060
 Frc consts  --     2.0724                 1.5237                 1.6213
 IR Inten    --   170.3081                30.9893                 8.6465

                    64                     65                     66
                     A                      A                      A
 Frequencies --  1319.9265              1342.6022              1363.7178
 Red. masses --     1.3557                 2.8122                 1.8677
 Frc consts  --     1.3916                 2.9867                 2.0464
 IR Inten    --    68.7784               101.8781                 4.8239

                    67                     68                     69
                     A                      A                      A
 Frequencies --  1380.4319              1392.5816              1408.7262
 Red. masses --     1.3245                 2.4353                 1.5373
 Frc consts  --     1.4871                 2.7825                 1.7975
 IR Inten    --    35.4128                96.9111                36.6221

                    70                     71                     72
                     A                      A                      A
 Frequencies --  1418.5426              1425.8919              1449.1262
 Red. masses --     2.0120                 1.4327                 2.7791
 Frc consts  --     2.3854                 1.7162                 3.4384
 IR Inten    --   114.5612                41.1791               246.9426

                    73                     74                     75
                     A                      A                      A
 Frequencies --  1452.9069              1465.7849              1480.9634
 Red. masses --     1.3408                 1.6194                 1.0933
 Frc consts  --     1.6676                 2.0499                 1.4128
 IR Inten    --    61.8591                47.8528                12.5768

                    76                     77                     78
                     A                      A                      A
 Frequencies --  1490.4882              1492.1754              1531.1280
 Red. masses --     2.2051                 1.1635                 3.5834
 Frc consts  --     2.8863                 1.5263                 4.9496
 IR Inten    --    14.3216                25.5103               364.0152

                    79                     80                     81
                     A                      A                      A
 Frequencies --  1648.5095              1687.2636              1728.6230
 Red. masses --     5.8488                 7.0668                 9.7928
 Frc consts  --     9.3648                11.8533                17.2408
 IR Inten    --    64.5688                72.2486               547.9189

                    82                     83                     84
                     A                      A                      A
 Frequencies --  1830.4158              3047.7275              3058.6740
 Red. masses --    10.7777                 1.0846                 1.0851
 Frc consts  --    21.2753                 5.9356                 5.9811
 IR Inten    --   560.6872                21.3234                11.8408

                    85                     86                     87
                     A                      A                      A
 Frequencies --  3086.0279              3089.5540              3125.4378
 Red. masses --     1.0572                 1.0429                 1.0896
 Frc consts  --     5.9318                 5.8653                 6.2713
 IR Inten    --     5.7131                11.6514                 8.6116

                    88                     89                     90
                     A                      A                      A
 Frequencies --  3136.5893              3171.4721              3183.5673
 Red. masses --     1.0993                 1.1029                 1.1019
 Frc consts  --     6.3721                 6.5361                 6.5798
 IR Inten    --     4.4100                17.6652                20.6167

                    91                     92                     93
                     A                      A                      A
 Frequencies --  3210.6800              3221.4799              3222.4868
 Red. masses --     1.0903                 1.0949                 1.0962
 Frc consts  --     6.6222                 6.6945                 6.7072
 IR Inten    --     0.3782                15.3199                 1.4191

                    94                     95                     96
                     A                      A                      A
 Frequencies --  3267.9249              3598.4065              3721.1021
 Red. masses --     1.0716                 1.0649                 1.0665
 Frc consts  --     6.7426                 8.1240                 8.7003
 IR Inten    --  1100.5491               328.5260               171.8266

 - Thermochemistry -
 -------------------
 Temperature   298.150 Kelvin.  Pressure   1.00000 Atm.
 Atom     1 has atomic number  8 and mass  15.99491

 Molecular mass:   299.05605 amu.
 Principal axes and moments of inertia in atomic units:
                           1         2         3
     Eigenvalues --  2447.81326********************
           X            0.99993  -0.01134   0.00173
           Y            0.01137   0.99973  -0.02015
           Z           -0.00150   0.02017   0.99980
 This molecule is an asymmetric top.
 Rotational symmetry number  1.
 Warning -- assumption of classical behavior for rotation
           may cause significant error
 Rotational temperatures (Kelvin)      0.03538     0.00623     0.00580
 Rotational constants (GHZ):           0.73729     0.12972     0.12085
 Zero-point vibrational energy     691782.2 (Joules/Mol)
                                  165.33993 (Kcal/Mol)
 Warning -- explicit consideration of  29 degrees of freedom as
           vibrations may cause significant error
 Vibrational temperatures:     37.46    47.12    57.03    84.98   116.81
          (Kelvin)            135.58   173.63   199.70   235.09   259.87
                              294.25   334.74   372.01   400.50   411.14
                              464.94   486.21   496.45   506.04   554.28
                              563.47   618.31   631.47   679.38   729.93
                              776.39   796.51   823.12   885.63   927.43
                              949.10   981.93  1003.61  1054.40  1061.66
                             1104.94  1131.62  1165.36  1223.50  1237.41
                             1305.08  1328.03  1330.33  1337.74  1394.43
                             1420.08  1460.32  1506.50  1545.57  1555.76
                             1586.29  1605.38  1624.95  1654.86  1675.30
                             1683.63  1713.74  1767.06  1793.99  1826.99
                             1841.37  1871.23  1883.38  1899.08  1931.70
                             1962.08  1986.13  2003.61  2026.84  2040.96
                             2051.54  2084.97  2090.41  2108.93  2130.77
                             2144.48  2146.90  2202.95  2371.83  2427.59
                             2487.10  2633.56  4384.99  4400.74  4440.10
                             4445.17  4496.80  4512.85  4563.04  4580.44
                             4619.45  4634.99  4636.43  4701.81  5177.30
                             5353.83

 Zero-point correction=                           0.263486 (Hartree/Particle)
 Thermal correction to Energy=                    0.281933
 Thermal correction to Enthalpy=                  0.282877
 Thermal correction to Gibbs Free Energy=         0.215108
 Sum of electronic and zero-point Energies=          -1394.312714
 Sum of electronic and thermal Energies=             -1394.294267
 Sum of electronic and thermal Enthalpies=           -1394.293323
 Sum of electronic and thermal Free Energies=        -1394.361091

                     E (Thermal)             CV                S
                      KCal/Mol        Cal/Mol-Kelvin    Cal/Mol-Kelvin
 Total                  176.915             69.767            142.631
 Electronic               0.000              0.000              0.000
 Translational            0.889              2.981             42.983
 Rotational               0.889              2.981             34.585
 Vibrational            175.138             63.805             65.062
 Vibration     1          0.593              1.985              6.111
 Vibration     2          0.594              1.983              5.655
 Vibration     3          0.594              1.981              5.277
 Vibration     4          0.596              1.974              4.488
 Vibration     5          0.600              1.962              3.862
 Vibration     6          0.603              1.953              3.570
 Vibration     7          0.609              1.932              3.090
 Vibration     8          0.614              1.915              2.820
 Vibration     9          0.623              1.887              2.510
 Vibration    10          0.630              1.866              2.322
 Vibration    11          0.640              1.833              2.092
 Vibration    12          0.653              1.791              1.858
 Vibration    13          0.667              1.748              1.671
 Vibration    14          0.679              1.714              1.544
 Vibration    15          0.684              1.700              1.499
 Vibration    16          0.708              1.629              1.294
 Vibration    17          0.718              1.600              1.222
 Vibration    18          0.723              1.585              1.189
 Vibration    19          0.728              1.572              1.158
 Vibration    20          0.754              1.502              1.019
 Vibration    21          0.759              1.488              0.994
 Vibration    22          0.791              1.405              0.859
 Vibration    23          0.799              1.385              0.830
 Vibration    24          0.829              1.312              0.731
 Vibration    25          0.863              1.234              0.640
 Vibration    26          0.895              1.162              0.566
 Vibration    27          0.909              1.132              0.537
 Vibration    28          0.928              1.092              0.500
 Vibration    29          0.975              0.999              0.424

 Optimization completed.
    -- Stationary point found.
 Normal termination of Gaussian 09 at Sat Mar 23 00:15:25 2019.
