 Gaussian 09, Revision B.01,
 Gaussian 09:  EM64L-G09RevB.01 12-Aug-2010

 ----------------------------------------------------------------------
 # m062x/6-31+G(d,p) opt freq=noraman integral(ultrafinegrid) scrf=(ief
 pcm,read,solvent=methanol)
 ----------------------------------------------------------------------

 Candidate Structure: 1b, Conformer: 7 geometry optimization and freque
 ncy calculation with methanol solvation
 ----------------------------------------------------------------------
 Symbolic Z-matrix:
 Charge =  0 Multiplicity = 1

 SCF Done:  E(RM062X) =  -1394.56555279     A.U. after   16 cycles
 SCF Done:  E(RM062X) =  -1394.57881428     A.U. after   16 cycles
 SCF Done:  E(RM062X) =  -1394.57971569     A.U. after   13 cycles
 SCF Done:  E(RM062X) =  -1394.58009661     A.U. after   13 cycles
 SCF Done:  E(RM062X) =  -1394.57996630     A.U. after   13 cycles
 SCF Done:  E(RM062X) =  -1394.58038939     A.U. after   13 cycles
 SCF Done:  E(RM062X) =  -1394.58049920     A.U. after   12 cycles
 SCF Done:  E(RM062X) =  -1394.58045957     A.U. after   12 cycles
 SCF Done:  E(RM062X) =  -1394.58054190     A.U. after   11 cycles
 SCF Done:  E(RM062X) =  -1394.58054549     A.U. after   11 cycles
 SCF Done:  E(RM062X) =  -1394.58054769     A.U. after   10 cycles
 SCF Done:  E(RM062X) =  -1394.58054822     A.U. after   10 cycles
 SCF Done:  E(RM062X) =  -1394.58054836     A.U. after    9 cycles
 SCF Done:  E(RM062X) =  -1394.58054855     A.U. after    8 cycles
 SCF Done:  E(RM062X) =  -1394.58054860     A.U. after    9 cycles
 Optimization completed.
    -- Stationary point found.
 Normal termination of Gaussian 09 at Sat Mar 23 00:20:36 2019.

 ----------------------------------------------------------------------
 #N Geom=AllCheck Guess=TCheck SCRF=Check GenChk RM062X/6-31+G(d,p) Fre
 q
 ----------------------------------------------------------------------

 ncy calculation with methanol solvation
 ----------------------------------------------------------------------
 Redundant internal coordinates taken from checkpoint file:
 1b-conf-7.chk
 Charge =  0 Multiplicity = 1

                         Standard orientation:
 ---------------------------------------------------------------------
 Center     Atomic      Atomic             Coordinates (Angstroms)
 Number     Number       Type             X           Y           Z
 ---------------------------------------------------------------------
      1          8           0        0.671777   -2.355207    0.582224
      2          6           0        1.761899   -1.607864    0.346737
      3          6           0        1.689056   -0.244908   -0.010005
      4          6           0        0.380048    0.393106   -0.143704
      5          7           0       -0.739514   -0.196355    0.068930
      6          6           0       -1.794648    0.766708   -0.270645
      7          6           0       -2.960243    0.717861    0.719550
      8          8           0       -3.932526    1.687948    0.373881
      9          6           0       -3.559247   -0.683408    0.850229
     10          6           0       -4.186238   -1.195193   -0.421599
     11          8           0       -4.401158   -2.509923   -0.389943
     12          8           0       -4.494626   -0.500045   -1.371200
     13          6           0       -1.040327    2.118835   -0.333605
     14          6           0       -1.085815    2.976176    0.917325
     15          8           0        0.340140    1.681763   -0.528623
     16          6           0        2.861740    0.486662   -0.239992
     17          6           0        4.089095   -0.138139   -0.115922
     18         17           0        5.554958    0.772783   -0.401259
     19          6           0        4.176592   -1.487642    0.235438
     20          6           0        3.018860   -2.214800    0.464477
     21          1           0       -0.134728   -1.790376    0.456958
     22          1           0       -2.179748    0.512162   -1.268260
     23          1           0       -2.591055    1.000655    1.711118
     24          1           0       -4.336206    1.421966   -0.469764
     25          1           0       -4.352015   -0.665354    1.608340
     26          1           0       -2.804956   -1.398483    1.189306
     27          1           0       -4.846231   -2.784146   -1.220587
     28          1           0       -1.313232    2.695882   -1.218650
     29          1           0       -0.739241    2.411642    1.788888
     30          1           0       -0.436453    3.844876    0.788154
     31          1           0       -2.107191    3.319406    1.098249
     32          1           0        2.794788    1.535489   -0.512840
     33          1           0        5.148973   -1.962843    0.328588
     34          1           0        3.066132   -3.264320    0.738980
 ---------------------------------------------------------------------

 SCF Done:  E(RM062X) =  -1394.58054860     A.U. after    1 cycles

 The electronic state is 1-A.
 Alpha  occ. eigenvalues -- -102.67971 -19.70494 -19.70065 -19.67599 -19.65941
 Alpha  occ. eigenvalues --  -19.65371 -14.77501 -10.70858 -10.67237 -10.64016
 Alpha  occ. eigenvalues --  -10.62288 -10.62243 -10.61826 -10.59574 -10.58736
 Alpha  occ. eigenvalues --  -10.58384 -10.58203 -10.57167 -10.56921 -10.54713
 Alpha  occ. eigenvalues --   -9.82626  -7.55024  -7.54369  -7.54362  -1.25289
 Alpha  occ. eigenvalues --   -1.23933  -1.19504  -1.16360  -1.15100  -1.03906
 Alpha  occ. eigenvalues --   -1.00804  -0.95247  -0.92212  -0.89113  -0.87052
 Alpha  occ. eigenvalues --   -0.83579  -0.81144  -0.77304  -0.73598  -0.72059
 Alpha  occ. eigenvalues --   -0.69568  -0.68338  -0.66932  -0.62880  -0.61873
 Alpha  occ. eigenvalues --   -0.60174  -0.59120  -0.58440  -0.57785  -0.56377
 Alpha  occ. eigenvalues --   -0.55523  -0.54646  -0.53679  -0.52909  -0.52195
 Alpha  occ. eigenvalues --   -0.51263  -0.50866  -0.49067  -0.48471  -0.48082
 Alpha  occ. eigenvalues --   -0.46696  -0.46295  -0.46008  -0.45635  -0.44932
 Alpha  occ. eigenvalues --   -0.44695  -0.43459  -0.41902  -0.41565  -0.40936
 Alpha  occ. eigenvalues --   -0.38894  -0.38760  -0.37467  -0.36807  -0.36253
 Alpha  occ. eigenvalues --   -0.34373  -0.31757  -0.28451
 Alpha virt. eigenvalues --   -0.02964   0.00710   0.01138   0.01653   0.01998
 Alpha virt. eigenvalues --    0.02477   0.02623   0.03376   0.03832   0.04248
 Alpha virt. eigenvalues --    0.04550   0.04999   0.05419   0.06027   0.06388

 Mulliken atomic charges:
              1
     1  O   -0.555490
     2  C   -0.548775
     3  C    0.120532
     4  C    0.398591
     5  N   -0.381677
     6  C   -0.081653
     7  C    0.183698
     8  O   -0.528345
     9  C   -0.455747
    10  C    0.512789
    11  O   -0.460532
    12  O   -0.505422
    13  C   -0.181944
    14  C   -0.384780
    15  O   -0.314096
    16  C   -0.541160
    17  C    0.066413
    18  Cl   0.209298
    19  C   -0.488815
    20  C    0.423948
    21  H    0.458466
    22  H    0.212282
    23  H    0.166013
    24  H    0.413428
    25  H    0.228426
    26  H    0.218023
    27  H    0.438334
    28  H    0.197304
    29  H    0.178341
    30  H    0.179133
    31  H    0.197579
    32  H    0.218944
    33  H    0.207385
    34  H    0.199510
 Sum of Mulliken atomic charges =   0.00000

 Dipole moment (field-independent basis, Debye):
    X=             -2.9441    Y=             -0.9223    Z=              0.0801  Tot=              3.0863
 Quadrupole moment (field-independent basis, Debye-Ang):
   XX=           -126.9795   YY=           -119.7923   ZZ=           -124.3418
   XY=              4.3952   XZ=              3.6055   YZ=              1.8743

  Exact polarizability: 304.674   2.830 248.423  -0.095 -19.921 167.214
 Approx polarizability: 261.870   6.555 234.793  -0.855 -22.924 166.872

                     1                      2                      3
                     A                      A                      A
 Frequencies --    23.2016                27.2097                42.0148
 Red. masses --     8.9577                 7.2764                 9.2206
 Frc consts  --     0.0028                 0.0032                 0.0096
 IR Inten    --     0.2176                 0.9814                 1.1344

                     4                      5                      6
                     A                      A                      A
 Frequencies --    70.0754                78.7668               100.4798
 Red. masses --     5.4510                 4.8233                 6.3295
 Frc consts  --     0.0158                 0.0176                 0.0377
 IR Inten    --     1.3470                 1.7827                 3.3688

                     7                      8                      9
                     A                      A                      A
 Frequencies --   113.0190               138.2019               163.5821
 Red. masses --     7.4046                 8.2090                 4.7021
 Frc consts  --     0.0557                 0.0924                 0.0741
 IR Inten    --     0.9219                 1.6529                 3.7816

                    10                     11                     12
                     A                      A                      A
 Frequencies --   188.9888               208.5926               234.0195
 Red. masses --     4.6324                 5.8229                 7.3185
 Frc consts  --     0.0975                 0.1493                 0.2361
 IR Inten    --     6.0238                 5.7534                 5.0540

                    13                     14                     15
                     A                      A                      A
 Frequencies --   276.4952               291.8639               302.4368
 Red. masses --     3.4744                 1.1296                 4.4279
 Frc consts  --     0.1565                 0.0567                 0.2386
 IR Inten    --     1.6506                 1.1209                 0.7498

                    16                     17                     18
                     A                      A                      A
 Frequencies --   328.0699               340.3340               362.7890
 Red. masses --     5.1950                 6.6882                 4.7816
 Frc consts  --     0.3294                 0.4564                 0.3708
 IR Inten    --     6.3391                 1.8457                 7.0376

                    19                     20                     21
                     A                      A                      A
 Frequencies --   371.4052               394.5116               424.0358
 Red. masses --     5.5196                 7.0876                 3.5701
 Frc consts  --     0.4486                 0.6499                 0.3782
 IR Inten    --     3.4641                 2.8893                10.3151

                    22                     23                     24
                     A                      A                      A
 Frequencies --   454.6617               466.4441               479.8468
 Red. masses --     1.1232                 3.5500                 3.0466
 Frc consts  --     0.1368                 0.4551                 0.4133
 IR Inten    --   208.0689                 5.1532                28.3869

                    25                     26                     27
                     A                      A                      A
 Frequencies --   510.1733               528.3545               544.1292
 Red. masses --     1.8518                 3.4200                 3.8198
 Frc consts  --     0.2840                 0.5625                 0.6663
 IR Inten    --    29.6413                10.9830                17.6513

                    28                     29                     30
                     A                      A                      A
 Frequencies --   557.1829               577.5166               634.9804
 Red. masses --     3.6695                 3.9060                 1.5955
 Frc consts  --     0.6712                 0.7676                 0.3790
 IR Inten    --    29.7683               128.3100               158.2424

                    31                     32                     33
                     A                      A                      A
 Frequencies --   658.1700               695.8355               726.0225
 Red. masses --     7.7060                 4.7608                 5.0598
 Frc consts  --     1.9668                 1.3581                 1.5714
 IR Inten    --    35.7238                 5.3859                21.4162

                    34                     35                     36
                     A                      A                      A
 Frequencies --   736.1389               737.3030               769.5015
 Red. masses --     2.8581                 1.4328                 4.7535
 Frc consts  --     0.9125                 0.4589                 1.6584
 IR Inten    --    90.1099                98.2660                43.9948

                    37                     38                     39
                     A                      A                      A
 Frequencies --   783.8360               839.6075               849.6795
 Red. masses --     3.0054                 3.4335                 1.5146
 Frc consts  --     1.0880                 1.4261                 0.6442
 IR Inten    --    18.5904                13.7185                42.4841

                    40                     41                     42
                     A                      A                      A
 Frequencies --   861.0639               881.0015               921.2405
 Red. masses --     5.9838                 3.5831                 1.8856
 Frc consts  --     2.6139                 1.6386                 0.9429
 IR Inten    --     2.5685                17.4172                50.8131

                    43                     44                     45
                     A                      A                      A
 Frequencies --   924.3361               943.8554               961.7545
 Red. masses --     1.8378                 3.8759                 2.9204
 Frc consts  --     0.9251                 2.0344                 1.5915
 IR Inten    --    20.1146                 3.0001                15.6370

                    46                     47                     48
                     A                      A                      A
 Frequencies --   986.6304               991.3727              1047.9744
 Red. masses --     1.3287                 2.5506                 2.6006
 Frc consts  --     0.7620                 1.4770                 1.6827
 IR Inten    --     0.4265                14.3376               161.8034

                    49                     50                     51
                     A                      A                      A
 Frequencies --  1074.1451              1102.6624              1104.7397
 Red. masses --     1.8412                 2.7513                 2.2306
 Frc consts  --     1.2517                 1.9710                 1.6039
 IR Inten    --    10.7018                35.3740                37.0078

                    52                     53                     54
                     A                      A                      A
 Frequencies --  1127.1593              1132.1788              1149.9313
 Red. masses --     2.0661                 2.2430                 1.8533
 Frc consts  --     1.5466                 1.6940                 1.4439
 IR Inten    --    37.1492               328.4451                68.9481

                    55                     56                     57
                     A                      A                      A
 Frequencies --  1164.2627              1173.3726              1194.1935
 Red. masses --     1.6275                 2.1272                 2.3618
 Frc consts  --     1.2998                 1.7256                 1.9845
 IR Inten    --   118.6798                48.5787               188.8075

                    58                     59                     60
                     A                      A                      A
 Frequencies --  1239.2276              1248.9914              1263.4315
 Red. masses --     1.4865                 1.5430                 1.3424
 Frc consts  --     1.3450                 1.4182                 1.2625
 IR Inten    --    86.4266               145.4422                20.1282

                    61                     62                     63
                     A                      A                      A
 Frequencies --  1281.0804              1295.9913              1311.1068
 Red. masses --     2.2214                 1.6197                 1.7584
 Frc consts  --     2.1480                 1.6029                 1.7810
 IR Inten    --   178.2351                 8.1664                11.5976

                    64                     65                     66
                     A                      A                      A
 Frequencies --  1327.3484              1341.4864              1342.0605
 Red. masses --     1.5588                 1.5301                 2.7903
 Frc consts  --     1.6181                 1.6223                 2.9610
 IR Inten    --    26.8047                47.6430               109.9231

                    67                     68                     69
                     A                      A                      A
 Frequencies --  1376.8091              1396.4944              1413.4890
 Red. masses --     1.3954                 2.3681                 1.4657
 Frc consts  --     1.5585                 2.7210                 1.7253
 IR Inten    --    21.4783               140.3759                23.4488

                    70                     71                     72
                     A                      A                      A
 Frequencies --  1419.5114              1426.9328              1430.6813
 Red. masses --     1.3652                 1.6331                 1.3170
 Frc consts  --     1.6208                 1.9591                 1.5883
 IR Inten    --   115.7363                32.9256                85.3102

                    73                     74                     75
                     A                      A                      A
 Frequencies --  1450.7703              1460.7614              1489.9730
 Red. masses --     2.9966                 1.7845                 2.6521
 Frc consts  --     3.7160                 2.2435                 3.4690
 IR Inten    --   236.5925               105.9105                 7.3126

                    76                     77                     78
                     A                      A                      A
 Frequencies --  1497.3350              1498.1903              1530.7684
 Red. masses --     1.0759                 1.0506                 3.5636
 Frc consts  --     1.4212                 1.3894                 4.9199
 IR Inten    --    23.9498                 9.0749               358.6091

                    79                     80                     81
                     A                      A                      A
 Frequencies --  1647.9982              1686.5998              1728.1949
 Red. masses --     5.8066                 7.0211                 9.7559
 Frc consts  --     9.2915                11.7674                17.1673
 IR Inten    --    63.4016                73.6050               554.5330

                    82                     83                     84
                     A                      A                      A
 Frequencies --  1812.4135              3051.3223              3076.0214
 Red. masses --    10.2178                 1.0846                 1.0375
 Frc consts  --    19.7754                 5.9498                 5.7839
 IR Inten    --   526.0302                 6.6387                 6.0745

                    85                     86                     87
                     A                      A                      A
 Frequencies --  3081.2718              3103.3884              3137.6562
 Red. masses --     1.0668                 1.0862                 1.0907
 Frc consts  --     5.9676                 6.1637                 6.3265
 IR Inten    --     7.4524                20.3200                 4.4627

                    88                     89                     90
                     A                      A                      A
 Frequencies --  3148.5086              3160.7093              3175.4723
 Red. masses --     1.0972                 1.1008                 1.1035
 Frc consts  --     6.4085                 6.4794                 6.5558
 IR Inten    --     0.8254                26.9597                 6.4539

                    91                     92                     93
                     A                      A                      A
 Frequencies --  3210.9517              3222.6419              3224.5335
 Red. masses --     1.0905                 1.0968                 1.0940
 Frc consts  --     6.6244                 6.7111                 6.7021
 IR Inten    --     0.5455                10.0933                 7.7020

                    94                     95                     96
                     A                      A                      A
 Frequencies --  3254.0458              3587.9307              3736.6083
 Red. masses --     1.0717                 1.0648                 1.0664
 Frc consts  --     6.6859                 8.0761                 8.7727
 IR Inten    --  1126.6533               334.1457               223.4744

 - Thermochemistry -
 -------------------
 Temperature   298.150 Kelvin.  Pressure   1.00000 Atm.
 Atom     1 has atomic number  8 and mass  15.99491

 Molecular mass:   299.05605 amu.
 Principal axes and moments of inertia in atomic units:
                           1         2         3
     Eigenvalues --  2857.01203********************
           X            0.99996  -0.00888  -0.00071
           Y            0.00888   0.99993   0.00751
           Z            0.00064  -0.00752   0.99997
 This molecule is an asymmetric top.
 Rotational symmetry number  1.
 Warning -- assumption of classical behavior for rotation
           may cause significant error
 Rotational temperatures (Kelvin)      0.03032     0.00706     0.00602
 Rotational constants (GHZ):           0.63169     0.14714     0.12547
 Zero-point vibrational energy     692997.1 (Joules/Mol)
                                  165.63027 (Kcal/Mol)
 Warning -- explicit consideration of  29 degrees of freedom as
           vibrations may cause significant error
 Vibrational temperatures:     33.38    39.15    60.45   100.82   113.33
          (Kelvin)            144.57   162.61   198.84   235.36   271.91
                              300.12   336.70   397.81   419.93   435.14
                              472.02   489.66   521.97   534.37   567.61
                              610.09   654.16   671.11   690.39   734.02
                              760.18   782.88   801.66   830.92   913.59
                              946.96  1001.15  1044.58  1059.14  1060.81
                             1107.14  1127.76  1208.01  1222.50  1238.88
                             1267.56  1325.46  1329.91  1358.00  1383.75
                             1419.54  1426.36  1507.80  1545.45  1586.48
                             1589.47  1621.73  1628.95  1654.49  1675.11
                             1688.22  1718.18  1782.97  1797.02  1817.79
                             1843.19  1864.64  1886.39  1909.76  1930.10
                             1930.92  1980.92  2009.24  2033.69  2042.36
                             2053.04  2058.43  2087.33  2101.71  2143.74
                             2154.33  2155.56  2202.43  2371.10  2426.64
                             2486.48  2607.66  4390.17  4425.70  4433.26
                             4465.08  4514.38  4530.00  4547.55  4568.79
                             4619.84  4636.66  4639.38  4681.84  5162.23
                             5376.14

 Zero-point correction=                           0.263949 (Hartree/Particle)
 Thermal correction to Energy=                    0.282195
 Thermal correction to Enthalpy=                  0.283139
 Thermal correction to Gibbs Free Energy=         0.215686
 Sum of electronic and zero-point Energies=          -1394.316600
 Sum of electronic and thermal Energies=             -1394.298354
 Sum of electronic and thermal Enthalpies=           -1394.297410
 Sum of electronic and thermal Free Energies=        -1394.364863

                     E (Thermal)             CV                S
                      KCal/Mol        Cal/Mol-Kelvin    Cal/Mol-Kelvin
 Total                  177.080             69.414            141.967
 Electronic               0.000              0.000              0.000
 Translational            0.889              2.981             42.983
 Rotational               0.889              2.981             34.576
 Vibrational            175.302             63.452             64.407
 Vibration     1          0.593              1.985              6.339
 Vibration     2          0.593              1.984              6.023
 Vibration     3          0.595              1.980              5.162
 Vibration     4          0.598              1.968              4.151
 Vibration     5          0.600              1.963              3.921
 Vibration     6          0.604              1.949              3.445
 Vibration     7          0.607              1.939              3.216
 Vibration     8          0.614              1.915              2.829
 Vibration     9          0.623              1.887              2.508
 Vibration    10          0.633              1.855              2.238
 Vibration    11          0.642              1.828              2.056
 Vibration    12          0.654              1.789              1.848
 Vibration    13          0.678              1.717              1.555
 Vibration    14          0.687              1.689              1.463
 Vibration    15          0.694              1.669              1.403
 Vibration    16          0.711              1.619              1.270
 Vibration    17          0.720              1.595              1.211
 Vibration    18          0.737              1.549              1.110
 Vibration    19          0.743              1.531              1.074
 Vibration    20          0.761              1.482              0.983
 Vibration    21          0.786              1.418              0.878
 Vibration    22          0.813              1.351              0.782
 Vibration    23          0.824              1.324              0.748
 Vibration    24          0.836              1.295              0.710
 Vibration    25          0.865              1.227              0.633
 Vibration    26          0.883              1.187              0.591
 Vibration    27          0.899              1.153              0.556
 Vibration    28          0.913              1.124              0.529
 Vibration    29          0.934              1.080              0.490

 Optimization completed.
    -- Stationary point found.
 Normal termination of Gaussian 09 at Sat Mar 23 00:45:02 2019.
