 Gaussian 09, Revision B.01,
 Gaussian 09:  EM64L-G09RevB.01 12-Aug-2010

 ----------------------------------------------------------------------
 # m062x/6-31+G(d,p) opt freq=noraman integral(ultrafinegrid) scrf=(ief
 pcm,read,solvent=methanol)
 ----------------------------------------------------------------------

 Candidate Structure: 1b, Conformer: 5 geometry optimization and freque
 ncy calculation with methanol solvation
 ----------------------------------------------------------------------
 Symbolic Z-matrix:
 Charge =  0 Multiplicity = 1

 SCF Done:  E(RM062X) =  -1394.55940198     A.U. after   16 cycles
 SCF Done:  E(RM062X) =  -1394.57181019     A.U. after   15 cycles
 SCF Done:  E(RM062X) =  -1394.56741207     A.U. after   16 cycles
 SCF Done:  E(RM062X) =  -1394.57412936     A.U. after   14 cycles
 SCF Done:  E(RM062X) =  -1394.57246326     A.U. after   14 cycles
 SCF Done:  E(RM062X) =  -1394.57496556     A.U. after   13 cycles
 SCF Done:  E(RM062X) =  -1394.57574781     A.U. after   14 cycles
 SCF Done:  E(RM062X) =  -1394.57552698     A.U. after   13 cycles
 SCF Done:  E(RM062X) =  -1394.57609843     A.U. after   13 cycles
 SCF Done:  E(RM062X) =  -1394.57612050     A.U. after   12 cycles
 SCF Done:  E(RM062X) =  -1394.57622455     A.U. after   12 cycles
 SCF Done:  E(RM062X) =  -1394.57623352     A.U. after   12 cycles
 SCF Done:  E(RM062X) =  -1394.57621941     A.U. after   12 cycles
 SCF Done:  E(RM062X) =  -1394.57622654     A.U. after   12 cycles
 SCF Done:  E(RM062X) =  -1394.57624086     A.U. after   11 cycles
 SCF Done:  E(RM062X) =  -1394.57624416     A.U. after   11 cycles
 SCF Done:  E(RM062X) =  -1394.57624774     A.U. after   11 cycles
 SCF Done:  E(RM062X) =  -1394.57624769     A.U. after   10 cycles
 SCF Done:  E(RM062X) =  -1394.57624769     A.U. after    8 cycles
 Optimization completed.
    -- Stationary point found.
 Normal termination of Gaussian 09 at Sat Mar 23 00:32:49 2019.

 ----------------------------------------------------------------------
 #N Geom=AllCheck Guess=TCheck SCRF=Check GenChk RM062X/6-31+G(d,p) Fre
 q
 ----------------------------------------------------------------------

 ncy calculation with methanol solvation
 ----------------------------------------------------------------------
 Redundant internal coordinates taken from checkpoint file:
 1b-conf-5.chk
 Charge =  0 Multiplicity = 1

                         Standard orientation:
 ---------------------------------------------------------------------
 Center     Atomic      Atomic             Coordinates (Angstroms)
 Number     Number       Type             X           Y           Z
 ---------------------------------------------------------------------
      1          8           0        0.293510   -2.236502   -0.795469
      2          6           0        1.359663   -1.464549   -0.525092
      3          6           0        1.277385   -0.058908   -0.433809
      4          6           0       -0.015990    0.592927   -0.628141
      5          7           0       -1.096831   -0.028028   -0.925100
      6          6           0       -2.160909    0.973972   -1.028647
      7          6           0       -3.479441    0.429923   -0.452952
      8          8           0       -3.949906   -0.587861   -1.318453
      9          6           0       -3.458785   -0.071027    1.006045
     10          6           0       -2.356175   -1.045596    1.341607
     11          8           0       -2.482205   -2.205021    0.676885
     12          8           0       -1.467385   -0.841364    2.139907
     13          6           0       -1.511201    2.263324   -0.451487
     14          6           0       -1.857183    2.688409    0.962995
     15          8           0       -0.090840    1.925487   -0.468303
     16          6           0        2.419628    0.697006   -0.140274
     17          6           0        3.628427    0.054071    0.054087
     18         17           0        5.057999    0.994154    0.416476
     19          6           0        3.725081   -1.337110   -0.032414
     20          6           0        2.596080   -2.088871   -0.319397
     21          1           0       -0.490608   -1.646574   -0.955258
     22          1           0       -2.371956    1.132277   -2.094387
     23          1           0       -4.229544    1.227737   -0.505343
     24          1           0       -3.319226   -1.327964   -1.303645
     25          1           0       -4.415166   -0.580078    1.164841
     26          1           0       -3.393922    0.756027    1.710169
     27          1           0       -1.740430   -2.798020    0.924074
     28          1           0       -1.640335    3.097237   -1.144703
     29          1           0       -1.593484    1.905260    1.679317
     30          1           0       -1.292937    3.589671    1.213601
     31          1           0       -2.923391    2.919606    1.047748
     32          1           0        2.344535    1.777856   -0.067886
     33          1           0        4.682430   -1.825759    0.125145
     34          1           0        2.650994   -3.171043   -0.389731
 ---------------------------------------------------------------------

 SCF Done:  E(RM062X) =  -1394.57624769     A.U. after    1 cycles

 The electronic state is 1-A.
 Alpha  occ. eigenvalues -- -102.67994 -19.70354 -19.70175 -19.67710 -19.65567
 Alpha  occ. eigenvalues --  -19.65251 -14.77605 -10.70370 -10.67439 -10.64101
 Alpha  occ. eigenvalues --  -10.62876 -10.62578 -10.62301 -10.60069 -10.58830
 Alpha  occ. eigenvalues --  -10.58456 -10.58258 -10.57047 -10.56981 -10.55341
 Alpha  occ. eigenvalues --   -9.82649  -7.55048  -7.54392  -7.54385  -1.24704
 Alpha  occ. eigenvalues --   -1.24215  -1.19588  -1.16081  -1.15039  -1.04163
 Alpha  occ. eigenvalues --   -1.00863  -0.95342  -0.92511  -0.88822  -0.87045
 Alpha  occ. eigenvalues --   -0.83740  -0.81849  -0.77375  -0.73574  -0.72044
 Alpha  occ. eigenvalues --   -0.69748  -0.68544  -0.67592  -0.63002  -0.61339
 Alpha  occ. eigenvalues --   -0.60992  -0.59467  -0.58154  -0.57731  -0.56242
 Alpha  occ. eigenvalues --   -0.55494  -0.54257  -0.53568  -0.53083  -0.51598
 Alpha  occ. eigenvalues --   -0.51491  -0.50307  -0.49963  -0.48989  -0.48126
 Alpha  occ. eigenvalues --   -0.47268  -0.46617  -0.46171  -0.45644  -0.45206
 Alpha  occ. eigenvalues --   -0.44475  -0.44013  -0.42673  -0.41513  -0.40013
 Alpha  occ. eigenvalues --   -0.38948  -0.38763  -0.37382  -0.36889  -0.35971
 Alpha  occ. eigenvalues --   -0.34599  -0.31939  -0.28536
 Alpha virt. eigenvalues --   -0.03213   0.00878   0.00995   0.01767   0.02144
 Alpha virt. eigenvalues --    0.02446   0.03078   0.03415   0.03945   0.04519
 Alpha virt. eigenvalues --    0.04613   0.04742   0.05327   0.05604   0.06599

 Mulliken atomic charges:
              1
     1  O   -0.563994
     2  C   -0.355222
     3  C    0.021185
     4  C    0.273071
     5  N   -0.481913
     6  C    0.174137
     7  C   -0.059667
     8  O   -0.526823
     9  C   -0.169954
    10  C    0.228477
    11  O   -0.459744
    12  O   -0.396547
    13  C    0.025543
    14  C   -0.500638
    15  O   -0.283574
    16  C   -0.608688
    17  C    0.035748
    18  Cl   0.211844
    19  C   -0.506910
    20  C    0.441503
    21  H    0.460141
    22  H    0.202808
    23  H    0.194529
    24  H    0.416200
    25  H    0.215221
    26  H    0.188698
    27  H    0.446684
    28  H    0.199044
    29  H    0.186708
    30  H    0.185536
    31  H    0.178774
    32  H    0.219627
    33  H    0.207928
    34  H    0.200267
 Sum of Mulliken atomic charges =   0.00000

 Dipole moment (field-independent basis, Debye):
    X=             -2.9739    Y=              1.7190    Z=             -0.5323  Tot=              3.4759
 Quadrupole moment (field-independent basis, Debye-Ang):
   XX=           -127.4372   YY=           -110.1527   ZZ=           -132.8026
   XY=            -15.8462   XZ=             -5.8942   YZ=             -2.8984

  Exact polarizability: 303.014  -0.945 247.829  29.282  10.507 169.169
 Approx polarizability: 265.203   6.944 236.480  28.381  12.203 166.003

                     1                      2                      3
                     A                      A                      A
 Frequencies --    19.4403                35.0208                52.8614
 Red. masses --     6.5452                 7.6490                 6.0698
 Frc consts  --     0.0015                 0.0055                 0.0100
 IR Inten    --     0.2531                 0.4074                 0.5600

                     4                      5                      6
                     A                      A                      A
 Frequencies --    64.4391                95.9557               115.3270
 Red. masses --     4.4850                 9.3316                 8.7072
 Frc consts  --     0.0110                 0.0506                 0.0682
 IR Inten    --     1.6472                 2.0311                 5.0417

                     7                      8                      9
                     A                      A                      A
 Frequencies --   128.3980               144.2539               156.6411
 Red. masses --     6.3062                 7.9514                 6.4930
 Frc consts  --     0.0613                 0.0975                 0.0939
 IR Inten    --     2.9888                 4.1475                 0.2824

                    10                     11                     12
                     A                      A                      A
 Frequencies --   173.1098               216.6398               252.9468
 Red. masses --     6.3692                 5.0371                 4.6673
 Frc consts  --     0.1125                 0.1393                 0.1759
 IR Inten    --     1.1470                 0.2363                 1.9619

                    13                     14                     15
                     A                      A                      A
 Frequencies --   278.4863               286.0657               320.6844
 Red. masses --     4.3530                 3.8538                 4.7924
 Frc consts  --     0.1989                 0.1858                 0.2904
 IR Inten    --     0.1371                 3.1223                 5.9535

                    16                     17                     18
                     A                      A                      A
 Frequencies --   344.0749               356.6334               367.2782
 Red. masses --     5.0368                 1.3602                 4.0154
 Frc consts  --     0.3513                 0.1019                 0.3191
 IR Inten    --     1.0271                 1.8229                 3.6523

                    19                     20                     21
                     A                      A                      A
 Frequencies --   378.2523               394.4019               421.4054
 Red. masses --     8.2766                 1.4201                 3.7192
 Frc consts  --     0.6977                 0.1302                 0.3891
 IR Inten    --    12.8334               165.2058                11.5441

                    22                     23                     24
                     A                      A                      A
 Frequencies --   430.2104               458.8407               475.0512
 Red. masses --     3.5927                 4.0135                 3.5187
 Frc consts  --     0.3918                 0.4979                 0.4679
 IR Inten    --    24.4100                 2.0082                 6.1294

                    25                     26                     27
                     A                      A                      A
 Frequencies --   520.5915               541.0445               556.8489
 Red. masses --     1.9165                 3.2800                 3.5174
 Frc consts  --     0.3060                 0.5657                 0.6426
 IR Inten    --     1.0369                19.4104                25.9800

                    28                     29                     30
                     A                      A                      A
 Frequencies --   559.0125               595.0139               657.7624
 Red. masses --     2.4589                 1.8334                 7.3529
 Frc consts  --     0.4527                 0.3824                 1.8743
 IR Inten    --   146.3969               255.2875                53.1604

                    31                     32                     33
                     A                      A                      A
 Frequencies --   660.9894               703.4444               728.7619
 Red. masses --     3.6871                 5.4025                 6.2731
 Frc consts  --     0.9491                 1.5751                 1.9629
 IR Inten    --    79.1547                 9.7888                65.6015

                    34                     35                     36
                     A                      A                      A
 Frequencies --   746.5567               766.5098               800.0337
 Red. masses --     3.0941                 3.6251                 3.2473
 Frc consts  --     1.0160                 1.2549                 1.2246
 IR Inten    --    22.2944                 4.1307                 6.0064

                    37                     38                     39
                     A                      A                      A
 Frequencies --   809.7459               828.3256               851.3349
 Red. masses --     1.2870                 3.8191                 1.4956
 Frc consts  --     0.4972                 1.5439                 0.6387
 IR Inten    --   142.1377                13.1988                29.8921

                    40                     41                     42
                     A                      A                      A
 Frequencies --   859.9001               887.0046               921.3044
 Red. masses --     5.5408                 3.6592                 1.6897
 Frc consts  --     2.4139                 1.6963                 0.8450
 IR Inten    --     2.3902                40.0607                22.9932

                    43                     44                     45
                     A                      A                      A
 Frequencies --   923.6164               942.9108               950.7282
 Red. masses --     2.3264                 3.8239                 2.6415
 Frc consts  --     1.1693                 2.0031                 1.4068
 IR Inten    --     3.2117                 8.5312                49.9312

                    46                     47                     48
                     A                      A                      A
 Frequencies --   983.2804               986.7401              1028.3793
 Red. masses --     3.0844                 1.3304                 2.5067
 Frc consts  --     1.7570                 0.7632                 1.5619
 IR Inten    --     3.2895                 0.4161                63.5862

                    49                     50                     51
                     A                      A                      A
 Frequencies --  1069.1546              1085.1597              1106.0096
 Red. masses --     2.2495                 2.1099                 2.2781
 Frc consts  --     1.5150                 1.4639                 1.6419
 IR Inten    --    95.3169                15.5781                46.4770

                    52                     53                     54
                     A                      A                      A
 Frequencies --  1107.9493              1127.4875              1153.4635
 Red. masses --     2.1854                 2.2154                 1.8854
 Frc consts  --     1.5806                 1.6593                 1.4779
 IR Inten    --    41.3244               118.7756               158.2670

                    55                     56                     57
                     A                      A                      A
 Frequencies --  1166.7416              1178.0855              1187.3193
 Red. masses --     1.6470                 1.8590                 1.8769
 Frc consts  --     1.3209                 1.5201                 1.5589
 IR Inten    --    21.0257               152.9639               236.7056

                    58                     59                     60
                     A                      A                      A
 Frequencies --  1231.6757              1249.6463              1262.0947
 Red. masses --     1.3384                 1.5585                 1.5101
 Frc consts  --     1.1962                 1.4340                 1.4172
 IR Inten    --    50.0957               194.7169                14.4853

                    61                     62                     63
                     A                      A                      A
 Frequencies --  1281.4116              1312.6949              1321.0776
 Red. masses --     2.5927                 1.6284                 1.6769
 Frc consts  --     2.5083                 1.6533                 1.7243
 IR Inten    --   176.9069                 5.1029                50.4741

                    64                     65                     66
                     A                      A                      A
 Frequencies --  1339.7763              1341.3549              1354.4548
 Red. masses --     2.0841                 1.7623                 2.0764
 Frc consts  --     2.2041                 1.8682                 2.2443
 IR Inten    --    79.3788                20.3461                51.9428

                    67                     68                     69
                     A                      A                      A
 Frequencies --  1366.5859              1383.5930              1400.0816
 Red. masses --     1.4742                 1.3576                 2.3960
 Frc consts  --     1.6222                 1.5312                 2.7672
 IR Inten    --    27.1564                 8.5540                92.8775

                    70                     71                     72
                     A                      A                      A
 Frequencies --  1417.5327              1422.2984              1427.8044
 Red. masses --     1.4313                 1.6335                 1.4534
 Frc consts  --     1.6945                 1.9470                 1.7457
 IR Inten    --   122.0285                41.4587                60.9994

                    73                     74                     75
                     A                      A                      A
 Frequencies --  1457.8120              1468.1248              1494.5270
 Red. masses --     3.1120                 1.1484                 2.4323
 Frc consts  --     3.8967                 1.4583                 3.2009
 IR Inten    --   267.1265                32.1857                11.8920

                    76                     77                     78
                     A                      A                      A
 Frequencies --  1498.0066              1515.1518              1529.7121
 Red. masses --     1.0545                 1.0627                 3.5495
 Frc consts  --     1.3942                 1.4374                 4.8936
 IR Inten    --    13.8106                31.2109               343.9863

                    79                     80                     81
                     A                      A                      A
 Frequencies --  1648.5359              1688.4877              1737.1774
 Red. masses --     5.5775                 6.7542                10.0243
 Frc consts  --     8.9307                11.3453                17.8235
 IR Inten    --    55.7646                59.8136               538.8397

                    82                     83                     84
                     A                      A                      A
 Frequencies --  1832.7803              3056.7538              3073.2352
 Red. masses --    10.2573                 1.0856                 1.0359
 Frc consts  --    20.3004                 5.9763                 5.7643
 IR Inten    --   568.4802                15.0784                 7.3321

                    85                     86                     87
                     A                      A                      A
 Frequencies --  3086.2144              3104.5091              3125.6185
 Red. masses --     1.0865                 1.0704                 1.0898
 Frc consts  --     6.0974                 6.0783                 6.2726
 IR Inten    --    17.9837                 2.4804                 9.1669

                    88                     89                     90
                     A                      A                      A
 Frequencies --  3160.1281              3165.5944              3205.8545
 Red. masses --     1.1029                 1.1039                 1.0949
 Frc consts  --     6.4895                 6.5179                 6.6299
 IR Inten    --    13.5292                16.0383                 2.5443

                    91                     92                     93
                     A                      A                      A
 Frequencies --  3210.2141              3221.7300              3222.8845
 Red. masses --     1.0904                 1.0954                 1.0955
 Frc consts  --     6.6207                 6.6991                 6.7040
 IR Inten    --     8.1975                35.9812                 2.3476

                    94                     95                     96
                     A                      A                      A
 Frequencies --  3226.8279              3589.3161              3743.7105
 Red. masses --     1.0722                 1.0649                 1.0662
 Frc consts  --     6.5775                 8.0829                 8.8042
 IR Inten    --  1052.9396               311.3983               146.1907

 - Thermochemistry -
 -------------------
 Temperature   298.150 Kelvin.  Pressure   1.00000 Atm.
 Atom     1 has atomic number  8 and mass  15.99491

 Molecular mass:   299.05605 amu.
 Principal axes and moments of inertia in atomic units:
                           1         2         3
     Eigenvalues --  3048.902359447.45241**********
           X            0.99978  -0.02044  -0.00428
           Y            0.02051   0.99967   0.01553
           Z            0.00396  -0.01561   0.99987
 This molecule is an asymmetric top.
 Rotational symmetry number  1.
 Warning -- assumption of classical behavior for rotation
           may cause significant error
 Rotational temperatures (Kelvin)      0.02841     0.00917     0.00800
 Rotational constants (GHZ):           0.59193     0.19103     0.16668
 Zero-point vibrational energy     694627.3 (Joules/Mol)
                                  166.01991 (Kcal/Mol)
 Warning -- explicit consideration of  29 degrees of freedom as
           vibrations may cause significant error
 Vibrational temperatures:     27.97    50.39    76.06    92.71   138.06
          (Kelvin)            165.93   184.74   207.55   225.37   249.07
                              311.70   363.93   400.68   411.58   461.39
                              495.05   513.12   528.43   544.22   567.46
                              606.31   618.98   660.17   683.49   749.01
                              778.44   801.18   804.29   856.09   946.37
                              951.02  1012.10  1048.52  1074.13  1102.84
                             1151.07  1165.04  1191.77  1224.88  1237.20
                             1276.20  1325.55  1328.88  1356.64  1367.88
                             1414.72  1419.70  1479.61  1538.27  1561.30
                             1591.30  1594.09  1622.20  1659.57  1678.68
                             1695.00  1708.29  1772.10  1797.96  1815.87
                             1843.66  1888.67  1900.73  1927.64  1929.91
                             1948.76  1966.21  1990.68  2014.40  2039.51
                             2046.37  2054.29  2097.46  2112.30  2150.29
                             2155.29  2179.96  2200.91  2371.87  2429.35
                             2499.41  2636.96  4397.98  4421.69  4440.37
                             4466.69  4497.06  4546.71  4554.58  4612.50
                             4618.78  4635.35  4637.01  4642.68  5164.22
                             5386.36

 Zero-point correction=                           0.264570 (Hartree/Particle)
 Thermal correction to Energy=                    0.282590
 Thermal correction to Enthalpy=                  0.283534
 Thermal correction to Gibbs Free Energy=         0.217143
 Sum of electronic and zero-point Energies=          -1394.311678
 Sum of electronic and thermal Energies=             -1394.293658
 Sum of electronic and thermal Enthalpies=           -1394.292714
 Sum of electronic and thermal Free Energies=        -1394.359105

                     E (Thermal)             CV                S
                      KCal/Mol        Cal/Mol-Kelvin    Cal/Mol-Kelvin
 Total                  177.328             69.039            139.732
 Electronic               0.000              0.000              0.000
 Translational            0.889              2.981             42.983
 Rotational               0.889              2.981             34.100
 Vibrational            175.550             63.077             62.650
 Vibration     1          0.593              1.986              6.691
 Vibration     2          0.594              1.982              5.523
 Vibration     3          0.596              1.976              4.707
 Vibration     4          0.597              1.971              4.316
 Vibration     5          0.603              1.952              3.535
 Vibration     6          0.608              1.937              3.177
 Vibration     7          0.611              1.925              2.970
 Vibration     8          0.616              1.909              2.747
 Vibration     9          0.620              1.895              2.590
 Vibration    10          0.627              1.876              2.401
 Vibration    11          0.645              1.816              1.987
 Vibration    12          0.664              1.758              1.710
 Vibration    13          0.679              1.713              1.543
 Vibration    14          0.684              1.700              1.497
 Vibration    15          0.706              1.634              1.307
 Vibration    16          0.723              1.587              1.193
 Vibration    17          0.732              1.562              1.137
 Vibration    18          0.740              1.540              1.091
 Vibration    19          0.749              1.516              1.046
 Vibration    20          0.761              1.482              0.983
 Vibration    21          0.784              1.424              0.887
 Vibration    22          0.791              1.404              0.858
 Vibration    23          0.817              1.341              0.769
 Vibration    24          0.832              1.305              0.724
 Vibration    25          0.876              1.204              0.609
 Vibration    26          0.896              1.159              0.563
 Vibration    27          0.912              1.125              0.530
 Vibration    28          0.915              1.120              0.526
 Vibration    29          0.953              1.042              0.458

 Normal termination of Gaussian 09 at Sat Mar 23 00:59:23 2019.
