 Gaussian 09, Revision B.01,
 Gaussian 09:  EM64L-G09RevB.01 12-Aug-2010

 ----------------------------------------------------------------------
 # m062x/6-31+G(d,p) opt freq=noraman integral(ultrafinegrid) scrf=(ief
 pcm,read,solvent=methanol)
 ----------------------------------------------------------------------

 Candidate Structure: 1b, Conformer: 19 geometry optimization and frequ
 ency calculation with methanol solvation
 ----------------------------------------------------------------------
 Symbolic Z-matrix:
 Charge =  0 Multiplicity = 1

 SCF Done:  E(RM062X) =  -1394.55040969     A.U. after   16 cycles
 SCF Done:  E(RM062X) =  -1394.55831140     A.U. after   14 cycles
 SCF Done:  E(RM062X) =  -1394.55946896     A.U. after   15 cycles
 SCF Done:  E(RM062X) =  -1394.56298852     A.U. after   14 cycles
 SCF Done:  E(RM062X) =  -1394.56619067     A.U. after   14 cycles
 SCF Done:  E(RM062X) =  -1394.56649559     A.U. after   13 cycles
 SCF Done:  E(RM062X) =  -1394.56527609     A.U. after   15 cycles
 SCF Done:  E(RM062X) =  -1394.56701305     A.U. after   14 cycles
 SCF Done:  E(RM062X) =  -1394.56755997     A.U. after   13 cycles
 SCF Done:  E(RM062X) =  -1394.56767419     A.U. after   14 cycles
 SCF Done:  E(RM062X) =  -1394.56781772     A.U. after   14 cycles
 SCF Done:  E(RM062X) =  -1394.56785815     A.U. after   12 cycles
 SCF Done:  E(RM062X) =  -1394.56786962     A.U. after   12 cycles
 SCF Done:  E(RM062X) =  -1394.56787065     A.U. after   10 cycles
 SCF Done:  E(RM062X) =  -1394.56787168     A.U. after   10 cycles
 SCF Done:  E(RM062X) =  -1394.56787188     A.U. after    9 cycles
 SCF Done:  E(RM062X) =  -1394.56787222     A.U. after    9 cycles
 Optimization completed.
    -- Stationary point found.
 Normal termination of Gaussian 09 at Sat Mar 23 00:01:45 2019.

 ----------------------------------------------------------------------
 #N Geom=AllCheck Guess=TCheck SCRF=Check GenChk RM062X/6-31+G(d,p) Fre
 q
 ----------------------------------------------------------------------

 ency calculation with methanol solvation
 ----------------------------------------------------------------------
 Redundant internal coordinates taken from checkpoint file:
 1b-conf-19.chk
 Charge =  0 Multiplicity = 1

                         Standard orientation:
 ---------------------------------------------------------------------
 Center     Atomic      Atomic             Coordinates (Angstroms)
 Number     Number       Type             X           Y           Z
 ---------------------------------------------------------------------
      1          8           0       -0.774059   -2.700367   -0.280399
      2          6           0       -1.602078   -1.634162   -0.216320
      3          6           0       -1.215082   -0.302639   -0.454200
      4          6           0        0.161465    0.081448   -0.802782
      5          7           0        0.635345    1.265314   -0.809571
      6          6           0        2.076499    1.128948   -1.082218
      7          6           0        2.889700    1.419051    0.203091
      8          8           0        3.123356    2.814213    0.304586
      9          6           0        2.238651    0.950348    1.518469
     10          6           0        2.125473   -0.542855    1.698318
     11          8           0        0.866408   -0.955372    1.880272
     12          8           0        3.072523   -1.301670    1.707980
     13          6           0        2.176056   -0.270738   -1.714611
     14          6           0        3.424022   -1.100757   -1.531369
     15          8           0        1.014373   -0.932503   -1.137314
     16          6           0       -2.162757    0.724189   -0.331005
     17          6           0       -3.466582    0.427332    0.015299
     18         17           0       -4.639621    1.716705    0.155390
     19          6           0       -3.861880   -0.890666    0.254060
     20          6           0       -2.929833   -1.908376    0.138655
     21          1           0        0.106873   -2.442477   -0.602601
     22          1           0        2.397127    1.880516   -1.810322
     23          1           0        3.882160    0.966055    0.103600
     24          1           0        2.266537    3.274828    0.349193
     25          1           0        1.255319    1.412673    1.625472
     26          1           0        2.885631    1.307089    2.326326
     27          1           0        0.865532   -1.926991    2.019438
     28          1           0        1.951783   -0.167748   -2.784303
     29          1           0        3.639682   -1.292936   -0.479821
     30          1           0        3.313134   -2.055634   -2.050816
     31          1           0        4.270686   -0.570842   -1.978350
     32          1           0       -1.851896    1.748341   -0.513475
     33          1           0       -4.889539   -1.113663    0.526045
     34          1           0       -3.209624   -2.941548    0.321655
 ---------------------------------------------------------------------

 SCF Done:  E(RM062X) =  -1394.56787222     A.U. after    1 cycles

 The electronic state is 1-A.
 Alpha  occ. eigenvalues -- -102.67996 -19.70641 -19.70340 -19.68434 -19.65672
 Alpha  occ. eigenvalues --  -19.65393 -14.76720 -10.70489 -10.66944 -10.64208
 Alpha  occ. eigenvalues --  -10.62599 -10.62275 -10.62198 -10.59476 -10.58924
 Alpha  occ. eigenvalues --  -10.58186 -10.58141 -10.56986 -10.56855 -10.55040
 Alpha  occ. eigenvalues --   -9.82651  -7.55049  -7.54395  -7.54386  -1.24984
 Alpha  occ. eigenvalues --   -1.24076  -1.19823  -1.15967  -1.15238  -1.03680
 Alpha  occ. eigenvalues --   -1.00754  -0.95263  -0.92212  -0.88573  -0.87308
 Alpha  occ. eigenvalues --   -0.83737  -0.81027  -0.77435  -0.73706  -0.70984
 Alpha  occ. eigenvalues --   -0.70316  -0.68374  -0.67338  -0.63774  -0.61679
 Alpha  occ. eigenvalues --   -0.59894  -0.59545  -0.58737  -0.58237  -0.55912
 Alpha  occ. eigenvalues --   -0.54666  -0.54575  -0.53795  -0.52858  -0.51994
 Alpha  occ. eigenvalues --   -0.51131  -0.50499  -0.49164  -0.48558  -0.48108
 Alpha  occ. eigenvalues --   -0.47278  -0.46682  -0.46198  -0.45479  -0.45007
 Alpha  occ. eigenvalues --   -0.43686  -0.43367  -0.41847  -0.40845  -0.40218
 Alpha  occ. eigenvalues --   -0.39125  -0.38722  -0.38083  -0.36421  -0.36147
 Alpha  occ. eigenvalues --   -0.34490  -0.31472  -0.28645
 Alpha virt. eigenvalues --   -0.02934   0.00757   0.00997   0.01811   0.02144
 Alpha virt. eigenvalues --    0.02446   0.02750   0.03231   0.03398   0.04502
 Alpha virt. eigenvalues --    0.04631   0.04900   0.05271   0.05792   0.06339

 Mulliken atomic charges:
              1
     1  O   -0.567116
     2  C   -0.391006
     3  C    0.172007
     4  C   -0.207675
     5  N   -0.247860
     6  C   -0.156266
     7  C   -0.143044
     8  O   -0.537125
     9  C   -0.117522
    10  C    0.135820
    11  O   -0.447398
    12  O   -0.398730
    13  C    0.506112
    14  C   -0.512156
    15  O   -0.306639
    16  C   -0.519702
    17  C    0.073239
    18  Cl   0.212066
    19  C   -0.402185
    20  C    0.327098
    21  H    0.469707
    22  H    0.203937
    23  H    0.184623
    24  H    0.413702
    25  H    0.204859
    26  H    0.219031
    27  H    0.454480
    28  H    0.195415
    29  H    0.189564
    30  H    0.181746
    31  H    0.186826
    32  H    0.215191
    33  H    0.207720
    34  H    0.201281
 Sum of Mulliken atomic charges =   0.00000

 Dipole moment (field-independent basis, Debye):
    X=              0.5424    Y=             -1.6471    Z=             -1.4450  Tot=              2.2572
 Quadrupole moment (field-independent basis, Debye-Ang):
   XX=           -135.3510   YY=           -126.8449   ZZ=           -119.5382
   XY=              5.1565   XZ=            -11.2329   YZ=              0.4485

  Exact polarizability: 291.620  -2.256 260.472 -25.071  -5.487 167.411
 Approx polarizability: 254.632  -4.485 251.747 -20.438  -5.450 160.177

                     1                      2                      3
                     A                      A                      A
 Frequencies --    24.4612                42.8989                48.1927
 Red. masses --     8.6162                 8.6944                 6.1963
 Frc consts  --     0.0030                 0.0094                 0.0085
 IR Inten    --     0.2808                 2.2728                 0.7943

                     4                      5                      6
                     A                      A                      A
 Frequencies --    65.8112               108.2835               116.5577
 Red. masses --     7.3585                 5.1567                 6.0802
 Frc consts  --     0.0188                 0.0356                 0.0487
 IR Inten    --     1.8737                 1.4037                 1.4888

                     7                      8                      9
                     A                      A                      A
 Frequencies --   125.2051               135.9117               156.1576
 Red. masses --     7.1059                 7.2290                 6.7784
 Frc consts  --     0.0656                 0.0787                 0.0974
 IR Inten    --     0.9634                 1.1044                 1.5077

                    10                     11                     12
                     A                      A                      A
 Frequencies --   172.7928               202.5588               219.6275
 Red. masses --     4.5557                 3.5731                 3.7924
 Frc consts  --     0.0801                 0.0864                 0.1078
 IR Inten    --     0.8183                 5.7648                 1.7843

                    13                     14                     15
                     A                      A                      A
 Frequencies --   255.5601               288.9655               311.3577
 Red. masses --     1.2646                 3.4499                 4.8388
 Frc consts  --     0.0487                 0.1697                 0.2764
 IR Inten    --     0.1992                16.7559                 1.4667

                    16                     17                     18
                     A                      A                      A
 Frequencies --   335.4329               342.1227               349.9577
 Red. masses --     3.5321                 1.7662                 5.3820
 Frc consts  --     0.2341                 0.1218                 0.3884
 IR Inten    --    22.6842                70.9986                 0.3977

                    19                     20                     21
                     A                      A                      A
 Frequencies --   376.2002               385.7205               399.6277
 Red. masses --     5.1562                 4.3127                 6.1593
 Frc consts  --     0.4299                 0.3781                 0.5796
 IR Inten    --    32.6889                80.7472                24.9158

                    22                     23                     24
                     A                      A                      A
 Frequencies --   428.4090               444.5730               464.9602
 Red. masses --     2.9732                 2.4268                 3.4570
 Frc consts  --     0.3215                 0.2826                 0.4403
 IR Inten    --    24.2842                38.9283                23.6187

                    25                     26                     27
                     A                      A                      A
 Frequencies --   467.1926               513.2999               539.7288
 Red. masses --     1.3820                 3.2360                 4.0526
 Frc consts  --     0.1777                 0.5023                 0.6956
 IR Inten    --   233.3930                22.7429                 2.0729

                    28                     29                     30
                     A                      A                      A
 Frequencies --   543.4207               580.5657               614.8084
 Red. masses --     3.4479                 2.6595                 2.4359
 Frc consts  --     0.5999                 0.5281                 0.5425
 IR Inten    --    16.6498                61.8317                20.8898

                    31                     32                     33
                     A                      A                      A
 Frequencies --   653.6694               661.9708               697.9651
 Red. masses --     1.8335                 7.6052                 4.3604
 Frc consts  --     0.4616                 1.9635                 1.2515
 IR Inten    --    59.7115                34.3807                16.6560

                    34                     35                     36
                     A                      A                      A
 Frequencies --   708.0885               721.0126               749.3274
 Red. masses --     4.2092                 3.9324                 4.4060
 Frc consts  --     1.2434                 1.2045                 1.4576
 IR Inten    --    35.7987                65.6370                55.1865

                    37                     38                     39
                     A                      A                      A
 Frequencies --   770.6576               849.1021               861.0601
 Red. masses --     5.5021                 1.5385                 6.1939
 Frc consts  --     1.9253                 0.6536                 2.7057
 IR Inten    --    12.8298                56.4971                 0.7139

                    40                     41                     42
                     A                      A                      A
 Frequencies --   873.5977               906.2072               927.5985
 Red. masses --     3.3224                 2.9838                 1.4325
 Frc consts  --     1.4939                 1.4437                 0.7262
 IR Inten    --    12.4845                58.6690                17.3961

                    43                     44                     45
                     A                      A                      A
 Frequencies --   940.8563               945.2770               957.5021
 Red. masses --     5.5237                 4.2455                 2.2317
 Frc consts  --     2.8809                 2.2351                 1.2055
 IR Inten    --    53.2241                16.7105                13.7470

                    46                     47                     48
                     A                      A                      A
 Frequencies --   977.2145               987.1238              1050.7277
 Red. masses --     1.9464                 1.3308                 2.5012
 Frc consts  --     1.0951                 0.7640                 1.6270
 IR Inten    --     6.0966                 1.0577                45.8147

                    49                     50                     51
                     A                      A                      A
 Frequencies --  1059.2904              1106.3835              1112.1474
 Red. masses --     2.2860                 3.0236                 2.9452
 Frc consts  --     1.5113                 2.1807                 2.1463
 IR Inten    --    81.9608               163.6804               159.2020

                    52                     53                     54
                     A                      A                      A
 Frequencies --  1114.8887              1125.4499              1153.1137
 Red. masses --     3.0649                 2.2215                 1.5069
 Frc consts  --     2.2446                 1.6579                 1.1806
 IR Inten    --    91.0022                17.3142                33.6084

                    55                     56                     57
                     A                      A                      A
 Frequencies --  1158.7754              1170.9759              1205.5114
 Red. masses --     1.4726                 2.1264                 1.9309
 Frc consts  --     1.1650                 1.7179                 1.6533
 IR Inten    --    80.0312                83.4118                41.3584

                    58                     59                     60
                     A                      A                      A
 Frequencies --  1210.9122              1226.4471              1240.8999
 Red. masses --     1.5809                 1.5299                 1.3331
 Frc consts  --     1.3658                 1.3558                 1.2094
 IR Inten    --   164.7690               116.9938               100.9327

                    61                     62                     63
                     A                      A                      A
 Frequencies --  1272.7158              1282.1354              1304.3256
 Red. masses --     2.0535                 1.7182                 1.4346
 Frc consts  --     1.9598                 1.6642                 1.4380
 IR Inten    --    94.9905               108.9929                 7.2549

                    64                     65                     66
                     A                      A                      A
 Frequencies --  1316.1818              1345.3532              1355.1429
 Red. masses --     2.1646                 1.8481                 1.5624
 Frc consts  --     2.2093                 1.9708                 1.6905
 IR Inten    --   273.4927                26.7435                23.1075

                    67                     68                     69
                     A                      A                      A
 Frequencies --  1364.6236              1373.2467              1384.2761
 Red. masses --     2.5262                 1.6557                 1.5451
 Frc consts  --     2.7717                 1.8397                 1.7444
 IR Inten    --    46.6136                89.2994                12.6940

                    70                     71                     72
                     A                      A                      A
 Frequencies --  1405.0026              1418.9462              1426.2027
 Red. masses --     1.5112                 1.8478                 1.2912
 Frc consts  --     1.7577                 2.1920                 1.5474
 IR Inten    --     9.3855               133.3388                54.2948

                    73                     74                     75
                     A                      A                      A
 Frequencies --  1434.8961              1476.3438              1493.6710
 Red. masses --     1.5187                 1.2324                 1.4029
 Frc consts  --     1.8424                 1.5826                 1.8441
 IR Inten    --    16.8891                53.3229                45.2762

                    76                     77                     78
                     A                      A                      A
 Frequencies --  1497.1565              1514.0689              1525.3954
 Red. masses --     2.1103                 1.0974                 3.2513
 Frc consts  --     2.7870                 1.4821                 4.4573
 IR Inten    --    73.0074                21.2968               352.9485

                    79                     80                     81
                     A                      A                      A
 Frequencies --  1650.3202              1694.4548              1736.0200
 Red. masses --     6.9956                 7.0532                11.0347
 Frc consts  --    11.2256                11.9315                19.5939
 IR Inten    --    28.2869                51.4235               486.8026

                    82                     83                     84
                     A                      A                      A
 Frequencies --  1824.9576              3062.0554              3084.6180
 Red. masses --    10.4785                 1.0867                 1.0386
 Frc consts  --    20.5614                 6.0034                 5.8226
 IR Inten    --   614.5451                22.2761                16.9499

                    85                     86                     87
                     A                      A                      A
 Frequencies --  3096.8781              3101.7452              3105.2262
 Red. masses --     1.0629                 1.0854                 1.0874
 Frc consts  --     6.0061                 6.1526                 6.1776
 IR Inten    --     1.8235                 9.5881                18.3582

                    88                     89                     90
                     A                      A                      A
 Frequencies --  3157.4036              3166.6374              3197.9508
 Red. masses --     1.1018                 1.1032                 1.1012
 Frc consts  --     6.4714                 6.5177                 6.6355
 IR Inten    --    12.5982                 3.9979                 0.2615

                    91                     92                     93
                     A                      A                      A
 Frequencies --  3211.2724              3222.8689              3225.7046
 Red. masses --     1.0905                 1.0971                 1.0936
 Frc consts  --     6.6255                 6.7139                 6.7045
 IR Inten    --     0.4691                 7.4790                 9.6231

                    94                     95                     96
                     A                      A                      A
 Frequencies --  3587.3323              3700.5517              3717.9175
 Red. masses --     1.0647                 1.0668                 1.0662
 Frc consts  --     8.0724                 8.6070                 8.6830
 IR Inten    --   318.0696               157.3050               598.0333

 - Thermochemistry -
 -------------------
 Temperature   298.150 Kelvin.  Pressure   1.00000 Atm.
 Atom     1 has atomic number  8 and mass  15.99491

 Molecular mass:   299.05605 amu.
 Principal axes and moments of inertia in atomic units:
                           1         2         3
     Eigenvalues --  3424.819709076.12089**********
           X            0.99984   0.01533  -0.00886
           Y           -0.01520   0.99979   0.01364
           Z            0.00907  -0.01350   0.99987
 This molecule is an asymmetric top.
 Rotational symmetry number  1.
 Warning -- assumption of classical behavior for rotation
           may cause significant error
 Rotational temperatures (Kelvin)      0.02529     0.00954     0.00849
 Rotational constants (GHZ):           0.52696     0.19884     0.17700
 Zero-point vibrational energy     693341.9 (Joules/Mol)
                                  165.71269 (Kcal/Mol)
 Warning -- explicit consideration of  30 degrees of freedom as
           vibrations may cause significant error
 Vibrational temperatures:     35.19    61.72    69.34    94.69   155.80
          (Kelvin)            167.70   180.14   195.55   224.68   248.61
                              291.44   315.99   367.69   415.76   447.97
                              482.61   492.24   503.51   541.27   554.97
                              574.97   616.38   639.64   668.97   672.19
                              738.52   776.55   781.86   835.30   884.57
                              940.48   952.43  1004.21  1018.78  1037.38
                             1078.11  1108.80  1221.67  1238.87  1256.91
                             1303.83  1334.61  1353.68  1360.04  1377.63
                             1405.99  1420.25  1511.76  1524.08  1591.84
                             1600.13  1604.07  1619.27  1659.07  1667.22
                             1684.77  1734.46  1742.23  1764.58  1785.38
                             1831.15  1844.70  1876.63  1893.69  1935.66
                             1949.75  1963.39  1975.79  1991.66  2021.48
                             2041.54  2051.99  2064.49  2124.13  2149.06
                             2154.07  2178.40  2194.70  2374.44  2437.94
                             2497.74  2625.70  4405.61  4438.07  4455.71
                             4462.71  4467.72  4542.79  4556.08  4601.13
                             4620.30  4636.98  4641.06  5161.36  5324.26
                             5349.25

 Zero-point correction=                           0.264080 (Hartree/Particle)
 Thermal correction to Energy=                    0.282466
 Thermal correction to Enthalpy=                  0.283410
 Thermal correction to Gibbs Free Energy=         0.216675
 Sum of electronic and zero-point Energies=          -1394.303792
 Sum of electronic and thermal Energies=             -1394.285406
 Sum of electronic and thermal Enthalpies=           -1394.284462
 Sum of electronic and thermal Free Energies=        -1394.351197

                     E (Thermal)             CV                S
                      KCal/Mol        Cal/Mol-Kelvin    Cal/Mol-Kelvin
 Total                  177.250             70.134            140.456
 Electronic               0.000              0.000              0.000
 Translational            0.889              2.981             42.983
 Rotational               0.889              2.981             34.116
 Vibrational            175.473             64.173             63.357
 Vibration     1          0.593              1.985              6.234
 Vibration     2          0.595              1.980              5.121
 Vibration     3          0.595              1.978              4.890
 Vibration     4          0.597              1.971              4.275
 Vibration     5          0.606              1.943              3.299
 Vibration     6          0.608              1.936              3.157
 Vibration     7          0.610              1.928              3.018
 Vibration     8          0.614              1.917              2.861
 Vibration     9          0.620              1.896              2.596
 Vibration    10          0.626              1.876              2.405
 Vibration    11          0.639              1.836              2.110
 Vibration    12          0.647              1.811              1.962
 Vibration    13          0.666              1.753              1.692
 Vibration    14          0.686              1.694              1.480
 Vibration    15          0.700              1.652              1.355
 Vibration    16          0.717              1.605              1.234
 Vibration    17          0.721              1.591              1.202
 Vibration    18          0.727              1.575              1.166
 Vibration    19          0.747              1.521              1.054
 Vibration    20          0.754              1.501              1.017
 Vibration    21          0.766              1.471              0.964
 Vibration    22          0.790              1.408              0.864
 Vibration    23          0.804              1.373              0.812
 Vibration    24          0.822              1.328              0.752
 Vibration    25          0.824              1.323              0.745
 Vibration    26          0.868              1.221              0.626
 Vibration    27          0.895              1.162              0.566
 Vibration    28          0.899              1.154              0.558
 Vibration    29          0.937              1.073              0.484
 Vibration    30          0.974              1.001              0.425

 Optimization completed.
    -- Stationary point found.
 Normal termination of Gaussian 09 at Sat Mar 23 00:28:31 2019.
