 Gaussian 09, Revision B.01,
 Gaussian 09:  EM64L-G09RevB.01 12-Aug-2010

 ----------------------------------------------------------------------
 # m062x/6-31+G(d,p) opt freq=noraman integral(ultrafinegrid) scrf=(ief
 pcm,read,solvent=methanol)
 ----------------------------------------------------------------------

 Candidate Structure: 1b, Conformer: 8 geometry optimization and freque
 ncy calculation with methanol solvation
 ----------------------------------------------------------------------
 Symbolic Z-matrix:
 Charge =  0 Multiplicity = 1

 SCF Done:  E(RM062X) =  -1394.55976836     A.U. after   16 cycles
 SCF Done:  E(RM062X) =  -1394.57413633     A.U. after   14 cycles
 SCF Done:  E(RM062X) =  -1394.57542360     A.U. after   16 cycles
 SCF Done:  E(RM062X) =  -1394.57644601     A.U. after   14 cycles
 SCF Done:  E(RM062X) =  -1394.57685972     A.U. after   17 cycles
 SCF Done:  E(RM062X) =  -1394.57731669     A.U. after   14 cycles
 SCF Done:  E(RM062X) =  -1394.57726866     A.U. after   12 cycles
 SCF Done:  E(RM062X) =  -1394.57754996     A.U. after   12 cycles
 SCF Done:  E(RM062X) =  -1394.57759142     A.U. after   12 cycles
 SCF Done:  E(RM062X) =  -1394.57761005     A.U. after   11 cycles
 SCF Done:  E(RM062X) =  -1394.57761165     A.U. after   11 cycles
 SCF Done:  E(RM062X) =  -1394.57761482     A.U. after   10 cycles
 SCF Done:  E(RM062X) =  -1394.57761007     A.U. after   11 cycles
 SCF Done:  E(RM062X) =  -1394.57761266     A.U. after   10 cycles
 Optimization completed.
    -- Stationary point found.
 Normal termination of Gaussian 09 at Sat Mar 23 00:21:33 2019.

 ----------------------------------------------------------------------
 #N Geom=AllCheck Guess=TCheck SCRF=Check GenChk RM062X/6-31+G(d,p) Fre
 q
 ----------------------------------------------------------------------

 ncy calculation with methanol solvation
 ----------------------------------------------------------------------
 Redundant internal coordinates taken from checkpoint file:
 1b-conf-8.chk
 Charge =  0 Multiplicity = 1

                         Standard orientation:
 ---------------------------------------------------------------------
 Center     Atomic      Atomic             Coordinates (Angstroms)
 Number     Number       Type             X           Y           Z
 ---------------------------------------------------------------------
      1          8           0        1.002288   -2.299171   -1.459660
      2          6           0        1.864963   -1.496857   -0.816638
      3          6           0        1.568897   -0.153262   -0.504436
      4          6           0        0.266875    0.397948   -0.872720
      5          7           0       -0.641916   -0.244419   -1.514360
      6          6           0       -1.835216    0.615019   -1.530990
      7          6           0       -2.905946    0.045148   -0.585097
      8          8           0       -3.542091   -1.075850   -1.171652
      9          6           0       -2.352423   -0.333193    0.795046
     10          6           0       -3.457626   -0.771136    1.722013
     11          8           0       -4.389262    0.178001    1.876311
     12          8           0       -3.513707   -1.846490    2.277313
     13          6           0       -1.256753    2.001251   -1.171388
     14          6           0       -2.079089    2.946910   -0.324373
     15          8           0       -0.018625    1.656903   -0.485920
     16          6           0        2.510238    0.639488    0.166474
     17          6           0        3.729909    0.093481    0.520184
     18         17           0        4.908623    1.078019    1.356740
     19          6           0        4.036208   -1.236653    0.219610
     20          6           0        3.108432   -2.023769   -0.444077
     21          1           0        0.176214   -1.786660   -1.658653
     22          1           0       -2.276754    0.632434   -2.532067
     23          1           0       -3.695456    0.795632   -0.470723
     24          1           0       -2.877886   -1.769435   -1.335376
     25          1           0       -1.832325    0.514604    1.256058
     26          1           0       -1.643443   -1.159803    0.703524
     27          1           0       -5.085324   -0.150828    2.483362
     28          1           0       -0.954776    2.501833   -2.099623
     29          1           0       -2.365647    2.507820    0.633839
     30          1           0       -1.510030    3.858766   -0.130793
     31          1           0       -2.987990    3.222736   -0.866712
     32          1           0        2.272570    1.672775    0.400694
     33          1           0        4.999326   -1.649580    0.505852
     34          1           0        3.328686   -3.059084   -0.686233
 ---------------------------------------------------------------------

 SCF Done:  E(RM062X) =  -1394.57761266     A.U. after    1 cycles

 The electronic state is 1-A.
 Alpha  occ. eigenvalues -- -102.68019 -19.70464 -19.70062 -19.67745 -19.65928
 Alpha  occ. eigenvalues --  -19.65232 -14.77774 -10.70247 -10.67564 -10.64162
 Alpha  occ. eigenvalues --  -10.62875 -10.62325 -10.62202 -10.59984 -10.58869
 Alpha  occ. eigenvalues --  -10.58501 -10.58304 -10.57148 -10.57009 -10.55764
 Alpha  occ. eigenvalues --   -9.82674  -7.55073  -7.54417  -7.54410  -1.24657
 Alpha  occ. eigenvalues --   -1.24387  -1.19648  -1.16213  -1.15029  -1.04162
 Alpha  occ. eigenvalues --   -1.00901  -0.95429  -0.92706  -0.89046  -0.87351
 Alpha  occ. eigenvalues --   -0.83772  -0.81667  -0.77124  -0.73411  -0.71643
 Alpha  occ. eigenvalues --   -0.70161  -0.69021  -0.67634  -0.63011  -0.61952
 Alpha  occ. eigenvalues --   -0.60990  -0.59033  -0.58571  -0.57303  -0.56425
 Alpha  occ. eigenvalues --   -0.55231  -0.54609  -0.53776  -0.53214  -0.51854
 Alpha  occ. eigenvalues --   -0.51213  -0.50572  -0.49506  -0.48824  -0.48101
 Alpha  occ. eigenvalues --   -0.47274  -0.46989  -0.46129  -0.45807  -0.45438
 Alpha  occ. eigenvalues --   -0.44344  -0.44040  -0.42736  -0.41210  -0.40132
 Alpha  occ. eigenvalues --   -0.38968  -0.38779  -0.37909  -0.37069  -0.36676
 Alpha  occ. eigenvalues --   -0.34310  -0.31980  -0.28574
 Alpha virt. eigenvalues --   -0.03244   0.00648   0.00979   0.01821   0.02241
 Alpha virt. eigenvalues --    0.02317   0.03135   0.03384   0.03771   0.04298
 Alpha virt. eigenvalues --    0.04639   0.04821   0.05128   0.05725   0.06261

 Mulliken atomic charges:
              1
     1  O   -0.540118
     2  C   -0.519316
     3  C    0.049777
     4  C    0.112152
     5  N   -0.341699
     6  C    0.034275
     7  C   -0.155343
     8  O   -0.540433
     9  C   -0.242245
    10  C    0.438187
    11  O   -0.477882
    12  O   -0.499810
    13  C    0.160178
    14  C   -0.446412
    15  O   -0.310038
    16  C   -0.499379
    17  C    0.120529
    18  Cl   0.207543
    19  C   -0.437139
    20  C    0.347522
    21  H    0.456102
    22  H    0.207686
    23  H    0.196810
    24  H    0.417008
    25  H    0.216407
    26  H    0.218196
    27  H    0.449582
    28  H    0.197633
    29  H    0.172473
    30  H    0.187897
    31  H    0.191248
    32  H    0.219736
    33  H    0.208130
    34  H    0.200743
 Sum of Mulliken atomic charges =   0.00000

 Dipole moment (field-independent basis, Debye):
    X=             -1.6678    Y=              4.4072    Z=             -1.3962  Tot=              4.9147
 Quadrupole moment (field-independent basis, Debye-Ang):
   XX=           -126.4245   YY=           -124.5398   ZZ=           -126.7839
   XY=            -20.5059   XZ=             -2.4583   YZ=             -0.0975

  Exact polarizability: 286.588  -6.284 246.989  37.580  15.962 188.130
 Approx polarizability: 247.320  -1.937 237.455  35.558  18.840 180.616

                     1                      2                      3
                     A                      A                      A
 Frequencies --    22.7783                33.5531                38.4238
 Red. masses --    11.1596                 7.2224                 9.7953
 Frc consts  --     0.0034                 0.0048                 0.0085
 IR Inten    --     0.2589                 0.3461                 2.8888

                     4                      5                      6
                     A                      A                      A
 Frequencies --    55.2451                88.6363               103.6104
 Red. masses --     4.8153                 5.4738                 6.1449
 Frc consts  --     0.0087                 0.0253                 0.0389
 IR Inten    --     0.0162                 2.7096                 1.3341

                     7                      8                      9
                     A                      A                      A
 Frequencies --   112.3382               130.6217               164.7729
 Red. masses --     5.8495                 7.5530                 5.8478
 Frc consts  --     0.0435                 0.0759                 0.0935
 IR Inten    --     2.4669                 1.5652                 1.4190

                    10                     11                     12
                     A                      A                      A
 Frequencies --   178.7931               187.7692               233.3459
 Red. masses --     5.1879                 4.3163                 1.5080
 Frc consts  --     0.0977                 0.0897                 0.0484
 IR Inten    --     0.3851                 1.5198                 0.7934

                    13                     14                     15
                     A                      A                      A
 Frequencies --   251.6738               261.9026               281.6315
 Red. masses --     2.2517                 4.3778                 5.2992
 Frc consts  --     0.0840                 0.1769                 0.2476
 IR Inten    --     1.5237                 2.9162                 6.7208

                    16                     17                     18
                     A                      A                      A
 Frequencies --   311.8848               346.2132               358.9666
 Red. masses --     4.9508                 5.7173                 1.4250
 Frc consts  --     0.2837                 0.4038                 0.1082
 IR Inten    --     7.1830                 8.4772               132.1386

                    19                     20                     21
                     A                      A                      A
 Frequencies --   379.5502               403.9436               418.2348
 Red. masses --     5.9090                 4.7920                 2.8949
 Frc consts  --     0.5015                 0.4607                 0.2983
 IR Inten    --    26.9918                24.4709                23.5910

                    22                     23                     24
                     A                      A                      A
 Frequencies --   434.1944               452.6261               468.1191
 Red. masses --     4.3221                 2.9128                 3.5980
 Frc consts  --     0.4801                 0.3516                 0.4645
 IR Inten    --    16.9873                16.4906                 1.8833

                    25                     26                     27
                     A                      A                      A
 Frequencies --   524.0359               537.2506               553.7653
 Red. masses --     2.5483                 3.1994                 3.7311
 Frc consts  --     0.4123                 0.5441                 0.6741
 IR Inten    --    45.0506                 7.5074                 9.3659

                    28                     29                     30
                     A                      A                      A
 Frequencies --   561.1294               590.7386               633.6279
 Red. masses --     2.2186                 2.3388                 3.4750
 Frc consts  --     0.4116                 0.4809                 0.8220
 IR Inten    --   120.9777                66.3061                59.1458

                    31                     32                     33
                     A                      A                      A
 Frequencies --   657.6539               691.9565               704.7657
 Red. masses --     7.5041                 3.7343                 4.5257
 Frc consts  --     1.9122                 1.0535                 1.3244
 IR Inten    --    19.3187               106.9803                 1.2383

                    34                     35                     36
                     A                      A                      A
 Frequencies --   727.5123               741.2967               770.0924
 Red. masses --     5.3887                 1.1601                 4.1313
 Frc consts  --     1.6804                 0.3756                 1.4435
 IR Inten    --    63.6240               132.3741                44.4199

                    37                     38                     39
                     A                      A                      A
 Frequencies --   794.1886               851.4538               857.6423
 Red. masses --     4.1166                 1.5322                 5.8072
 Frc consts  --     1.5298                 0.6545                 2.5167
 IR Inten    --    19.4100                44.9286                 3.0543

                    40                     41                     42
                     A                      A                      A
 Frequencies --   883.3465               907.7819               923.5574
 Red. masses --     4.6857                 2.6802                 1.7798
 Frc consts  --     2.1542                 1.3013                 0.8944
 IR Inten    --    27.1736                16.6876                13.3392

                    43                     44                     45
                     A                      A                      A
 Frequencies --   925.8785               936.4447               950.1887
 Red. masses --     1.6096                 4.0827                 4.4585
 Frc consts  --     0.8130                 2.1094                 2.3717
 IR Inten    --     9.4081                 1.8778                10.5175

                    46                     47                     48
                     A                      A                      A
 Frequencies --   981.2487               988.0368              1041.5903
 Red. masses --     2.3276                 1.3291                 1.6703
 Frc consts  --     1.3204                 0.7645                 1.0676
 IR Inten    --    14.2785                 0.5009                25.6718

                    49                     50                     51
                     A                      A                      A
 Frequencies --  1057.2930              1103.1740              1111.7324
 Red. masses --     3.2381                 2.2548                 2.7313
 Frc consts  --     2.1327                 1.6167                 1.9889
 IR Inten    --   149.9667                23.8390               103.8379

                    52                     53                     54
                     A                      A                      A
 Frequencies --  1124.4343              1129.8674              1150.1908
 Red. masses --     2.9725                 2.3727                 1.5064
 Frc consts  --     2.2143                 1.7846                 1.1742
 IR Inten    --    67.4857               192.6524               191.2710

                    55                     56                     57
                     A                      A                      A
 Frequencies --  1166.5874              1174.6700              1196.7344
 Red. masses --     1.6309                 2.1513                 1.9834
 Frc consts  --     1.3077                 1.7489                 1.6736
 IR Inten    --     4.5434                27.5626               145.3756

                    58                     59                     60
                     A                      A                      A
 Frequencies --  1220.9456              1245.0616              1259.7958
 Red. masses --     1.4110                 1.6861                 1.3853
 Frc consts  --     1.2393                 1.5400                 1.2953
 IR Inten    --   133.0814               264.4990                23.2993

                    61                     62                     63
                     A                      A                      A
 Frequencies --  1278.8359              1292.1798              1311.7768
 Red. masses --     2.0754                 1.5336                 1.5905
 Frc consts  --     1.9998                 1.5087                 1.6125
 IR Inten    --   152.6151                22.8186                22.0123

                    64                     65                     66
                     A                      A                      A
 Frequencies --  1334.7133              1344.4658              1357.1052
 Red. masses --     2.2628                 1.9345                 1.6602
 Frc consts  --     2.3750                 2.0602                 1.8015
 IR Inten    --   120.7010                13.3521                17.4651

                    67                     68                     69
                     A                      A                      A
 Frequencies --  1389.4387              1394.7636              1399.4401
 Red. masses --     1.4777                 2.0777                 2.0491
 Frc consts  --     1.6808                 2.3814                 2.3645
 IR Inten    --    34.6641                31.3245               129.4649

                    70                     71                     72
                     A                      A                      A
 Frequencies --  1404.6741              1427.0333              1434.3366
 Red. masses --     1.7467                 1.4285                 1.4051
 Frc consts  --     2.0305                 1.7139                 1.7032
 IR Inten    --    64.1626                41.7832                96.1525

                    73                     74                     75
                     A                      A                      A
 Frequencies --  1458.3657              1470.8664              1487.7860
 Red. masses --     2.4802                 1.1102                 2.6044
 Frc consts  --     3.1080                 1.4152                 3.3966
 IR Inten    --   218.2709                 5.0414                 4.6673

                    76                     77                     78
                     A                      A                      A
 Frequencies --  1491.7197              1505.7083              1530.8061
 Red. masses --     1.1098                 1.0739                 3.5372
 Frc consts  --     1.4550                 1.4344                 4.8837
 IR Inten    --    24.7097                35.5609               329.2284

                    79                     80                     81
                     A                      A                      A
 Frequencies --  1646.6910              1685.0688              1722.9929
 Red. masses --     5.8209                 7.1283                 9.3870
 Frc consts  --     9.2996                11.9253                16.4189
 IR Inten    --    70.8416                88.4231               538.1593

                    82                     83                     84
                     A                      A                      A
 Frequencies --  1834.8017              3072.3000              3084.2728
 Red. masses --    10.6194                 1.0874                 1.0386
 Frc consts  --    21.0633                 6.0475                 5.8212
 IR Inten    --   678.2276                16.8996                 8.6838

                    85                     86                     87
                     A                      A                      A
 Frequencies --  3093.2217              3106.9528              3111.8154
 Red. masses --     1.0602                 1.0868                 1.0871
 Frc consts  --     5.9766                 6.1812                 6.2024
 IR Inten    --     2.1173                 8.3842                18.9069

                    88                     89                     90
                     A                      A                      A
 Frequencies --  3156.8218              3163.9623              3175.8836
 Red. masses --     1.1027                 1.1022                 1.1031
 Frc consts  --     6.4745                 6.5008                 6.5554
 IR Inten    --     5.9802                 9.0877                17.8344

                    91                     92                     93
                     A                      A                      A
 Frequencies --  3210.8961              3222.5329              3223.8723
 Red. masses --     1.0906                 1.0961                 1.0947
 Frc consts  --     6.6246                 6.7064                 6.7038
 IR Inten    --     0.3280                13.5396                 4.7069

                    94                     95                     96
                     A                      A                      A
 Frequencies --  3258.1700              3602.1455              3695.2214
 Red. masses --     1.0718                 1.0650                 1.0666
 Frc consts  --     6.7035                 8.1415                 8.5805
 IR Inten    --  1072.9777               339.5398               157.3448

 - Thermochemistry -
 -------------------
 Temperature   298.150 Kelvin.  Pressure   1.00000 Atm.
 Atom     1 has atomic number  8 and mass  15.99491

 Molecular mass:   299.05605 amu.
 Principal axes and moments of inertia in atomic units:
                           1         2         3
     Eigenvalues --  3617.68096********************
           X            0.99981  -0.01920  -0.00246
           Y            0.01912   0.99944  -0.02747
           Z            0.00298   0.02741   0.99962
 This molecule is an asymmetric top.
 Rotational symmetry number  1.
 Warning -- assumption of classical behavior for rotation
           may cause significant error
 Rotational temperatures (Kelvin)      0.02394     0.00763     0.00733
 Rotational constants (GHZ):           0.49887     0.15897     0.15270
 Zero-point vibrational energy     692495.1 (Joules/Mol)
                                  165.51030 (Kcal/Mol)
 Warning -- explicit consideration of  29 degrees of freedom as
           vibrations may cause significant error
 Vibrational temperatures:     32.77    48.28    55.28    79.49   127.53
          (Kelvin)            149.07   161.63   187.94   237.07   257.24
                              270.16   335.73   362.10   376.82   405.20
                              448.73   498.12   516.47   546.09   581.18
                              601.75   624.71   651.23   673.52   753.97
                              772.98   796.74   807.34   849.94   911.65
                              946.22   995.57  1014.00  1046.73  1066.56
                             1107.99  1142.66  1225.05  1233.95  1270.94
                             1306.09  1328.79  1332.13  1347.33  1367.11
                             1411.80  1421.56  1498.61  1521.21  1587.22
                             1599.53  1617.81  1625.63  1654.87  1678.46
                             1690.09  1721.83  1756.67  1791.36  1812.56
                             1839.96  1859.16  1887.35  1920.35  1934.38
                             1952.57  1999.09  2006.75  2013.48  2021.01
                             2053.18  2063.69  2098.26  2116.25  2140.59
                             2146.25  2166.38  2202.49  2369.22  2424.44
                             2479.00  2639.87  4420.35  4437.58  4450.45
                             4470.21  4477.20  4541.96  4552.23  4569.38
                             4619.76  4636.50  4638.43  4687.77  5182.68
                             5316.59

 Zero-point correction=                           0.263757 (Hartree/Particle)
 Thermal correction to Energy=                    0.282177
 Thermal correction to Enthalpy=                  0.283122
 Thermal correction to Gibbs Free Energy=         0.215254
 Sum of electronic and zero-point Energies=          -1394.313855
 Sum of electronic and thermal Energies=             -1394.295435
 Sum of electronic and thermal Enthalpies=           -1394.294491
 Sum of electronic and thermal Free Energies=        -1394.362359

                     E (Thermal)             CV                S
                      KCal/Mol        Cal/Mol-Kelvin    Cal/Mol-Kelvin
 Total                  177.069             69.585            142.840
 Electronic               0.000              0.000              0.000
 Translational            0.889              2.981             42.983
 Rotational               0.889              2.981             34.539
 Vibrational            175.291             63.624             65.318
 Vibration     1          0.593              1.985              6.376
 Vibration     2          0.594              1.983              5.607
 Vibration     3          0.594              1.982              5.339
 Vibration     4          0.596              1.975              4.620
 Vibration     5          0.601              1.957              3.690
 Vibration     6          0.605              1.946              3.385
 Vibration     7          0.607              1.939              3.228
 Vibration     8          0.612              1.923              2.937
 Vibration     9          0.623              1.886              2.494
 Vibration    10          0.629              1.868              2.341
 Vibration    11          0.632              1.857              2.250
 Vibration    12          0.654              1.790              1.853
 Vibration    13          0.664              1.760              1.719
 Vibration    14          0.669              1.743              1.649
 Vibration    15          0.681              1.708              1.524
 Vibration    16          0.700              1.651              1.352
 Vibration    17          0.724              1.583              1.183
 Vibration    18          0.734              1.557              1.127
 Vibration    19          0.750              1.514              1.041
 Vibration    20          0.769              1.462              0.948
 Vibration    21          0.781              1.431              0.898
 Vibration    22          0.795              1.396              0.845
 Vibration    23          0.811              1.355              0.788
 Vibration    24          0.825              1.321              0.743
 Vibration    25          0.879              1.197              0.601
 Vibration    26          0.892              1.168              0.571
 Vibration    27          0.909              1.131              0.536
 Vibration    28          0.917              1.115              0.522
 Vibration    29          0.948              1.052              0.466

 Normal termination of Gaussian 09 at Sat Mar 23 00:46:08 2019.
