 Gaussian 09, Revision B.01,
 Gaussian 09:  EM64L-G09RevB.01 12-Aug-2010

 ----------------------------------------------------------------------
 # m062x/6-31+G(d,p) opt freq=noraman integral(ultrafinegrid) scrf=(ief
 pcm,read,solvent=methanol)
 ----------------------------------------------------------------------

 Candidate Structure: 1b, Conformer: 15 geometry optimization and frequ
 ency calculation with methanol solvation
 ----------------------------------------------------------------------
 Symbolic Z-matrix:
 Charge =  0 Multiplicity = 1

 SCF Done:  E(RM062X) =  -1394.55397090     A.U. after   16 cycles
 SCF Done:  E(RM062X) =  -1394.56741221     A.U. after   14 cycles
 SCF Done:  E(RM062X) =  -1394.56827024     A.U. after   15 cycles
 SCF Done:  E(RM062X) =  -1394.56975433     A.U. after   14 cycles
 SCF Done:  E(RM062X) =  -1394.56991227     A.U. after   13 cycles
 SCF Done:  E(RM062X) =  -1394.56990717     A.U. after   14 cycles
 SCF Done:  E(RM062X) =  -1394.57042674     A.U. after   12 cycles
 SCF Done:  E(RM062X) =  -1394.57073636     A.U. after   17 cycles
 SCF Done:  E(RM062X) =  -1394.57080340     A.U. after   13 cycles
 SCF Done:  E(RM062X) =  -1394.57083275     A.U. after   12 cycles
 SCF Done:  E(RM062X) =  -1394.57084587     A.U. after   11 cycles
 SCF Done:  E(RM062X) =  -1394.57085117     A.U. after   12 cycles
 SCF Done:  E(RM062X) =  -1394.57085146     A.U. after   11 cycles
 SCF Done:  E(RM062X) =  -1394.57085142     A.U. after   10 cycles
 SCF Done:  E(RM062X) =  -1394.57085136     A.U. after    9 cycles
 SCF Done:  E(RM062X) =  -1394.57085141     A.U. after    8 cycles
 Optimization completed.
    -- Stationary point found.
 Normal termination of Gaussian 09 at Fri Mar 22 23:33:05 2019.

 ----------------------------------------------------------------------
 #N Geom=AllCheck Guess=TCheck SCRF=Check GenChk RM062X/6-31+G(d,p) Fre
 q
 ----------------------------------------------------------------------

 ency calculation with methanol solvation
 ----------------------------------------------------------------------
 Redundant internal coordinates taken from checkpoint file:
 1b-conf-15.chk
 Charge =  0 Multiplicity = 1

                         Standard orientation:
 ---------------------------------------------------------------------
 Center     Atomic      Atomic             Coordinates (Angstroms)
 Number     Number       Type             X           Y           Z
 ---------------------------------------------------------------------
      1          8           0       -1.825635    2.752736   -1.091872
      2          6           0       -2.304230    1.554402   -0.694861
      3          6           0       -1.596610    0.624089    0.089973
      4          6           0       -0.228178    0.856250    0.577985
      5          7           0        0.395558    0.153530    1.439364
      6          6           0        1.766338    0.686607    1.496259
      7          6           0        2.735505   -0.306552    0.834025
      8          8           0        2.947212   -1.424059    1.678017
      9          6           0        2.264466   -0.783587   -0.546711
     10          6           0        3.307435   -1.649437   -1.205689
     11          8           0        4.474028   -1.007679   -1.349454
     12          8           0        3.133939   -2.790096   -1.575710
     13          6           0        1.640419    2.076345    0.839059
     14          6           0        2.778991    2.606340   -0.003908
     15          8           0        0.442073    1.911901    0.028978
     16          6           0       -2.210564   -0.587464    0.446419
     17          6           0       -3.498134   -0.861975    0.031331
     18         17           0       -4.248693   -2.376010    0.479190
     19          6           0       -4.210063    0.054896   -0.746597
     20          6           0       -3.611299    1.250943   -1.102213
     21          1           0       -0.906211    2.877020   -0.798524
     22          1           0        2.086866    0.786561    2.538004
     23          1           0        3.714629    0.175677    0.741502
     24          1           0        2.089020   -1.849828    1.854425
     25          1           0        2.055639    0.065493   -1.207649
     26          1           0        1.349809   -1.373201   -0.448420
     27          1           0        5.118985   -1.607280   -1.780192
     28          1           0        1.380131    2.807235    1.614614
     29          1           0        3.043687    1.931885   -0.821055
     30          1           0        2.507702    3.575533   -0.428405
     31          1           0        3.659991    2.748542    0.628482
     32          1           0       -1.653221   -1.297903    1.049531
     33          1           0       -5.222440   -0.170828   -1.069156
     34          1           0       -4.143100    1.980963   -1.705048
 ---------------------------------------------------------------------

 SCF Done:  E(RM062X) =  -1394.57085141     A.U. after    1 cycles

 The electronic state is 1-A.
 Alpha  occ. eigenvalues -- -102.68034 -19.70889 -19.70013 -19.68499 -19.65758
 Alpha  occ. eigenvalues --  -19.65186 -14.76856 -10.70184 -10.67131 -10.64421
 Alpha  occ. eigenvalues --  -10.62892 -10.62360 -10.62043 -10.59623 -10.59091
 Alpha  occ. eigenvalues --  -10.58324 -10.58280 -10.57089 -10.57016 -10.55796
 Alpha  occ. eigenvalues --   -9.82691  -7.55090  -7.54434  -7.54425  -1.24606
 Alpha  occ. eigenvalues --   -1.24351  -1.19954  -1.16065  -1.14970  -1.03854
 Alpha  occ. eigenvalues --   -1.00852  -0.95401  -0.92599  -0.88883  -0.87440
 Alpha  occ. eigenvalues --   -0.83849  -0.81414  -0.77404  -0.73420  -0.70907
 Alpha  occ. eigenvalues --   -0.70492  -0.69044  -0.67705  -0.63978  -0.62061
 Alpha  occ. eigenvalues --   -0.59826  -0.58998  -0.58589  -0.57623  -0.56356
 Alpha  occ. eigenvalues --   -0.55126  -0.54613  -0.53621  -0.53103  -0.51986
 Alpha  occ. eigenvalues --   -0.50988  -0.50464  -0.49724  -0.48639  -0.47963
 Alpha  occ. eigenvalues --   -0.47423  -0.46918  -0.46256  -0.45995  -0.44919
 Alpha  occ. eigenvalues --   -0.44469  -0.44061  -0.42079  -0.41189  -0.40079
 Alpha  occ. eigenvalues --   -0.39237  -0.38765  -0.37718  -0.36847  -0.36380
 Alpha  occ. eigenvalues --   -0.34457  -0.31533  -0.28747
 Alpha virt. eigenvalues --   -0.03209   0.00646   0.00979   0.01790   0.01872
 Alpha virt. eigenvalues --    0.02590   0.03160   0.03345   0.03689   0.04258
 Alpha virt. eigenvalues --    0.04699   0.04783   0.05034   0.05852   0.06261

 Mulliken atomic charges:
              1
     1  O   -0.568548
     2  C   -0.694541
     3  C    0.186385
     4  C    0.195905
     5  N   -0.268620
     6  C   -0.062522
     7  C   -0.154784
     8  O   -0.537811
     9  C   -0.254840
    10  C    0.433136
    11  O   -0.480042
    12  O   -0.501453
    13  C    0.240570
    14  C   -0.433484
    15  O   -0.377661
    16  C   -0.631410
    17  C    0.222046
    18  Cl   0.206120
    19  C   -0.470694
    20  C    0.418289
    21  H    0.461352
    22  H    0.203392
    23  H    0.195840
    24  H    0.414391
    25  H    0.216130
    26  H    0.215873
    27  H    0.449161
    28  H    0.200749
    29  H    0.172571
    30  H    0.187554
    31  H    0.191649
    32  H    0.215174
    33  H    0.209311
    34  H    0.200813
 Sum of Mulliken atomic charges =   0.00000

 Dipole moment (field-independent basis, Debye):
    X=              2.3861    Y=              5.9832    Z=             -0.2989  Tot=              6.4483
 Quadrupole moment (field-independent basis, Debye-Ang):
   XX=           -114.7771   YY=           -131.9024   ZZ=           -126.8066
   XY=              9.9549   XZ=              0.1299   YZ=              1.3946

  Exact polarizability: 277.696  23.381 253.533  27.091 -25.226 188.556
 Approx polarizability: 239.469  19.000 238.900  25.334 -28.597 184.813

                     1                      2                      3
                     A                      A                      A
 Frequencies --    17.1500                31.3431                35.5587
 Red. masses --     9.0965                 9.2688                 7.3372
 Frc consts  --     0.0016                 0.0054                 0.0055
 IR Inten    --     0.4229                 1.5889                 0.8935

                     4                      5                      6
                     A                      A                      A
 Frequencies --    52.7801                77.6424                98.6996
 Red. masses --     5.2408                 5.6000                 5.3486
 Frc consts  --     0.0086                 0.0199                 0.0307
 IR Inten    --     0.1977                 1.9451                 0.0583

                     7                      8                      9
                     A                      A                      A
 Frequencies --   113.6069               125.5949               160.5649
 Red. masses --     5.9334                 7.8653                 5.9987
 Frc consts  --     0.0451                 0.0731                 0.0911
 IR Inten    --     1.7969                 0.2344                 1.4478

                    10                     11                     12
                     A                      A                      A
 Frequencies --   175.2863               190.1958               214.8886
 Red. masses --     4.8027                 4.0827                 3.3546
 Frc consts  --     0.0869                 0.0870                 0.0913
 IR Inten    --     0.2312                 1.5219                 0.9154

                    13                     14                     15
                     A                      A                      A
 Frequencies --   239.2323               265.1436               281.1867
 Red. masses --     1.2561                 6.5685                 4.0783
 Frc consts  --     0.0424                 0.2721                 0.1900
 IR Inten    --     0.2026                 4.9483                 5.2243

                    16                     17                     18
                     A                      A                      A
 Frequencies --   336.7675               346.7862               352.9347
 Red. masses --     5.6532                 5.8111                 2.7472
 Frc consts  --     0.3778                 0.4117                 0.2016
 IR Inten    --     3.8458                 7.7501                61.3590

                    19                     20                     21
                     A                      A                      A
 Frequencies --   383.2272               399.8978               420.3549
 Red. masses --     2.6258                 2.9114                 2.8779
 Frc consts  --     0.2272                 0.2743                 0.2996
 IR Inten    --    64.0287                55.8339                36.5577

                    22                     23                     24
                     A                      A                      A
 Frequencies --   430.8285               454.6753               474.6931
 Red. masses --     3.7293                 3.0144                 3.6842
 Frc consts  --     0.4078                 0.3672                 0.4891
 IR Inten    --     8.4755                25.9651                 0.7883

                    25                     26                     27
                     A                      A                      A
 Frequencies --   483.2947               523.5500               537.3745
 Red. masses --     1.0836                 3.0435                 3.5230
 Frc consts  --     0.1491                 0.4915                 0.5994
 IR Inten    --   181.7226                12.0573                 8.1682

                    28                     29                     30
                     A                      A                      A
 Frequencies --   555.7092               563.6728               598.8537
 Red. masses --     3.6740                 2.3744                 1.8642
 Frc consts  --     0.6685                 0.4445                 0.3939
 IR Inten    --    11.4060               129.0962                77.3784

                    31                     32                     33
                     A                      A                      A
 Frequencies --   633.9752               662.7773               693.3583
 Red. masses --     3.4563                 7.4358                 3.5916
 Frc consts  --     0.8185                 1.9245                 1.0173
 IR Inten    --    55.0334                33.8455                48.0386

                    34                     35                     36
                     A                      A                      A
 Frequencies --   701.9539               720.2483               759.5043
 Red. masses --     5.0784                 5.7472                 4.5155
 Frc consts  --     1.4743                 1.7566                 1.5347
 IR Inten    --    14.3549                94.4214                12.7107

                    37                     38                     39
                     A                      A                      A
 Frequencies --   786.5636               850.2631               859.0851
 Red. masses --     4.4577                 1.5412                 5.9292
 Frc consts  --     1.6249                 0.6565                 2.5782
 IR Inten    --    18.0572                53.2550                 0.3874

                    40                     41                     42
                     A                      A                      A
 Frequencies --   885.2311               908.9751               922.2891
 Red. masses --     4.3737                 2.6862                 2.0511
 Frc consts  --     2.0194                 1.3076                 1.0279
 IR Inten    --    35.6345                32.0562                15.8537

                    43                     44                     45
                     A                      A                      A
 Frequencies --   928.9173               936.6700               943.8004
 Red. masses --     1.4894                 3.8063                 7.2959
 Frc consts  --     0.7572                 1.9675                 3.8290
 IR Inten    --    15.5129                 4.3073                66.0625

                    46                     47                     48
                     A                      A                      A
 Frequencies --   973.4918               988.8937              1041.0226
 Red. masses --     1.9868                 1.3299                 1.6672
 Frc consts  --     1.1094                 0.7662                 1.0645
 IR Inten    --     7.1928                 0.7717                24.7389

                    49                     50                     51
                     A                      A                      A
 Frequencies --  1050.8830              1105.1945              1109.8114
 Red. masses --     3.3407                 2.3392                 3.0092
 Frc consts  --     2.1737                 1.6834                 2.1837
 IR Inten    --   101.4036                 9.8825               134.9157

                    52                     53                     54
                     A                      A                      A
 Frequencies --  1123.2277              1125.8872              1152.0508
 Red. masses --     3.2715                 2.2658                 1.5291
 Frc consts  --     2.4318                 1.6922                 1.1957
 IR Inten    --   136.3846                67.1982               222.4464

                    55                     56                     57
                     A                      A                      A
 Frequencies --  1154.3452              1173.2189              1196.6660
 Red. masses --     1.4605                 2.1238                 1.8675
 Frc consts  --     1.1466                 1.7223                 1.5756
 IR Inten    --     1.8700                28.7830               106.1765

                    58                     59                     60
                     A                      A                      A
 Frequencies --  1211.9583              1223.0835              1259.0379
 Red. masses --     1.6102                 1.4213                 1.4313
 Frc consts  --     1.3935                 1.2527                 1.3368
 IR Inten    --   147.8568               137.3007                90.1365

                    61                     62                     63
                     A                      A                      A
 Frequencies --  1270.4276              1289.5036              1303.3553
 Red. masses --     2.1392                 1.5846                 1.8812
 Frc consts  --     2.0342                 1.5524                 1.8828
 IR Inten    --    96.0747                92.9746               142.6565

                    64                     65                     66
                     A                      A                      A
 Frequencies --  1325.6557              1344.3721              1347.5194
 Red. masses --     1.6794                 1.7755                 1.6273
 Frc consts  --     1.7389                 1.8906                 1.7410
 IR Inten    --   189.1831                20.7212                32.4002

                    67                     68                     69
                     A                      A                      A
 Frequencies --  1367.0686              1382.8253              1393.7194
 Red. masses --     2.3767                 1.7700                 2.0064
 Frc consts  --     2.6170                 1.9941                 2.2962
 IR Inten    --    57.4735                12.0362                52.2037

                    70                     71                     72
                     A                      A                      A
 Frequencies --  1399.0372              1403.7832              1430.8083
 Red. masses --     1.8210                 1.5496                 1.4718
 Frc consts  --     2.1000                 1.7992                 1.7753
 IR Inten    --   102.7959                24.2532                23.6941

                    73                     74                     75
                     A                      A                      A
 Frequencies --  1433.8673              1471.0620              1490.6668
 Red. masses --     1.4195                 1.1006                 1.0835
 Frc consts  --     1.7195                 1.4033                 1.4185
 IR Inten    --   116.4847                14.9833                16.4255

                    76                     77                     78
                     A                      A                      A
 Frequencies --  1495.3241              1506.3107              1524.0838
 Red. masses --     3.1413                 1.1669                 3.2411
 Frc consts  --     4.1384                 1.5600                 4.4357
 IR Inten    --    91.1290                32.2263               376.1778

                    79                     80                     81
                     A                      A                      A
 Frequencies --  1648.7639              1694.5371              1737.1505
 Red. masses --     6.9455                 7.0762                11.0138
 Frc consts  --    11.1242                11.9717                19.5822
 IR Inten    --    36.0362                58.4261               510.5361

                    82                     83                     84
                     A                      A                      A
 Frequencies --  1834.7526              3071.5586              3084.1745
 Red. masses --    10.6083                 1.0874                 1.0380
 Frc consts  --    21.0402                 6.0446                 5.8171
 IR Inten    --   677.6972                16.7533                 8.1987

                    85                     86                     87
                     A                      A                      A
 Frequencies --  3094.7644              3103.0783              3108.3115
 Red. masses --     1.0615                 1.0865                 1.0870
 Frc consts  --     5.9899                 6.1642                 6.1876
 IR Inten    --     2.6329                 7.9102                17.6574

                    88                     89                     90
                     A                      A                      A
 Frequencies --  3159.7878              3162.9602              3175.8364
 Red. masses --     1.1026                 1.1023                 1.1031
 Frc consts  --     6.4859                 6.4975                 6.5554
 IR Inten    --     4.6200                 9.0604                16.9716

                    91                     92                     93
                     A                      A                      A
 Frequencies --  3211.2648              3222.7190              3224.4805
 Red. masses --     1.0905                 1.0968                 1.0940
 Frc consts  --     6.6256                 6.7118                 6.7020
 IR Inten    --     0.4316                10.5326                 8.0853

                    94                     95                     96
                     A                      A                      A
 Frequencies --  3605.2810              3698.6483              3711.6519
 Red. masses --     1.0649                 1.0665                 1.0660
 Frc consts  --     8.1553                 8.5961                 8.6526
 IR Inten    --   340.7738               143.3367               614.0896

 - Thermochemistry -
 -------------------
 Temperature   298.150 Kelvin.  Pressure   1.00000 Atm.
 Atom     1 has atomic number  8 and mass  15.99491

 Molecular mass:   299.05605 amu.
 Principal axes and moments of inertia in atomic units:
                           1         2         3
     Eigenvalues --  4115.85445********************
           X            0.99998   0.00021   0.00626
           Y           -0.00021   1.00000  -0.00091
           Z           -0.00626   0.00090   0.99998
 This molecule is an asymmetric top.
 Rotational symmetry number  1.
 Warning -- assumption of classical behavior for rotation
           may cause significant error
 Rotational temperatures (Kelvin)      0.02104     0.00852     0.00711
 Rotational constants (GHZ):           0.43849     0.17748     0.14805
 Zero-point vibrational energy     692356.6 (Joules/Mol)
                                  165.47721 (Kcal/Mol)
 Warning -- explicit consideration of  30 degrees of freedom as
           vibrations may cause significant error
 Vibrational temperatures:     24.68    45.10    51.16    75.94   111.71
          (Kelvin)            142.01   163.45   180.70   231.02   252.20
                              273.65   309.18   344.20   381.48   404.56
                              484.53   498.95   507.79   551.38   575.36
                              604.80   619.87   654.18   682.98   695.35
                              753.27   773.16   799.54   811.00   861.62
                              912.15   953.59   997.59  1009.95  1036.28
                             1092.76  1131.69  1223.34  1236.03  1273.65
                             1307.81  1326.97  1336.50  1347.66  1357.92
                             1400.64  1422.80  1497.80  1511.98  1590.13
                             1596.77  1616.07  1619.90  1657.54  1660.84
                             1688.00  1721.73  1743.74  1759.74  1811.47
                             1827.86  1855.31  1875.24  1907.32  1934.25
                             1938.78  1966.90  1989.57  2005.25  2012.90
                             2019.73  2058.61  2063.01  2116.53  2144.73
                             2151.44  2167.24  2192.81  2372.20  2438.06
                             2499.37  2639.80  4419.28  4437.43  4452.67
                             4464.63  4472.16  4546.22  4550.79  4569.31
                             4620.29  4636.77  4639.30  5187.19  5321.52
                             5340.23

 Zero-point correction=                           0.263705 (Hartree/Particle)
 Thermal correction to Energy=                    0.282360
 Thermal correction to Enthalpy=                  0.283305
 Thermal correction to Gibbs Free Energy=         0.214477
 Sum of electronic and zero-point Energies=          -1394.307147
 Sum of electronic and thermal Energies=             -1394.288491
 Sum of electronic and thermal Enthalpies=           -1394.287547
 Sum of electronic and thermal Free Energies=        -1394.356375

                     E (Thermal)             CV                S
                      KCal/Mol        Cal/Mol-Kelvin    Cal/Mol-Kelvin
 Total                  177.184             70.240            144.861
 Electronic               0.000              0.000              0.000
 Translational            0.889              2.981             42.983
 Rotational               0.889              2.981             34.588
 Vibrational            175.406             64.279             67.289
 Vibration     1          0.593              1.986              6.940
 Vibration     2          0.594              1.983              5.743
 Vibration     3          0.594              1.982              5.492
 Vibration     4          0.596              1.976              4.710
 Vibration     5          0.599              1.964              3.950
 Vibration     6          0.604              1.950              3.480
 Vibration     7          0.607              1.938              3.206
 Vibration     8          0.611              1.927              3.012
 Vibration     9          0.622              1.891              2.543
 Vibration    10          0.627              1.873              2.378
 Vibration    11          0.634              1.853              2.226
 Vibration    12          0.645              1.818              2.002
 Vibration    13          0.657              1.780              1.809
 Vibration    14          0.671              1.737              1.628
 Vibration    15          0.681              1.708              1.526
 Vibration    16          0.717              1.602              1.227
 Vibration    17          0.725              1.582              1.181
 Vibration    18          0.729              1.569              1.153
 Vibration    19          0.752              1.506              1.026
 Vibration    20          0.766              1.470              0.963
 Vibration    21          0.783              1.426              0.891
 Vibration    22          0.792              1.403              0.856
 Vibration    23          0.813              1.351              0.782
 Vibration    24          0.831              1.306              0.725
 Vibration    25          0.839              1.287              0.701
 Vibration    26          0.879              1.198              0.602
 Vibration    27          0.892              1.167              0.571
 Vibration    28          0.911              1.127              0.532
 Vibration    29          0.919              1.110              0.517
 Vibration    30          0.957              1.034              0.452

 Optimization completed.
    -- Stationary point found.
 Normal termination of Gaussian 09 at Fri Mar 22 23:58:07 2019.
