 Gaussian 09, Revision B.01,
 Gaussian 09:  EM64L-G09RevB.01 12-Aug-2010

 ----------------------------------------------------------------------
 # m062x/6-31+G(d,p) opt freq=noraman integral(ultrafinegrid) scrf=(ief
 pcm,read,solvent=methanol)
 ----------------------------------------------------------------------

 Candidate Structure: 1b, Conformer: 2 geometry optimization and freque
 ncy calculation with methanol solvation
 ----------------------------------------------------------------------
 Symbolic Z-matrix:
 Charge =  0 Multiplicity = 1

 SCF Done:  E(RM062X) =  -1394.55310341     A.U. after   15 cycles
 SCF Done:  E(RM062X) =  -1394.56718565     A.U. after   14 cycles
 SCF Done:  E(RM062X) =  -1394.56853393     A.U. after   15 cycles
 SCF Done:  E(RM062X) =  -1394.56897176     A.U. after   13 cycles
 SCF Done:  E(RM062X) =  -1394.56934757     A.U. after   14 cycles
 SCF Done:  E(RM062X) =  -1394.56948116     A.U. after   12 cycles
 SCF Done:  E(RM062X) =  -1394.56924156     A.U. after   13 cycles
 SCF Done:  E(RM062X) =  -1394.56929828     A.U. after   14 cycles
 SCF Done:  E(RM062X) =  -1394.56959810     A.U. after   14 cycles
 SCF Done:  E(RM062X) =  -1394.56960145     A.U. after   12 cycles
 SCF Done:  E(RM062X) =  -1394.56960330     A.U. after   10 cycles
 SCF Done:  E(RM062X) =  -1394.56960338     A.U. after    9 cycles
 SCF Done:  E(RM062X) =  -1394.56960346     A.U. after    9 cycles
 SCF Done:  E(RM062X) =  -1394.56960340     A.U. after   10 cycles
 SCF Done:  E(RM062X) =  -1394.56960324     A.U. after    9 cycles
 Optimization completed.
    -- Stationary point found.
 Normal termination of Gaussian 09 at Fri Mar 22 23:57:59 2019.

 ----------------------------------------------------------------------
 #N Geom=AllCheck Guess=TCheck SCRF=Check GenChk RM062X/6-31+G(d,p) Fre
 q
 ----------------------------------------------------------------------

 ncy calculation with methanol solvation
 ----------------------------------------------------------------------
 Redundant internal coordinates taken from checkpoint file:
 1b-conf-2.chk
 Charge =  0 Multiplicity = 1

                         Standard orientation:
 ---------------------------------------------------------------------
 Center     Atomic      Atomic             Coordinates (Angstroms)
 Number     Number       Type             X           Y           Z
 ---------------------------------------------------------------------
      1          8           0        2.156049    2.835747   -0.453886
      2          6           0        2.663284    1.591112   -0.325907
      3          6           0        1.894476    0.418176   -0.205242
      4          6           0        0.422702    0.414501   -0.193569
      5          7           0       -0.327626   -0.583616    0.053740
      6          6           0       -1.708096   -0.119013   -0.160172
      7          6           0       -2.667151   -0.844998    0.783412
      8          8           0       -2.339960   -0.649203    2.146096
      9          6           0       -4.119450   -0.416941    0.612449
     10          6           0       -4.726574   -0.866723   -0.692590
     11          8           0       -5.938655   -0.335229   -0.881056
     12          8           0       -4.210161   -1.628760   -1.481607
     13          6           0       -1.593352    1.421520   -0.091547
     14          6           0       -1.764875    2.104997    1.254998
     15          8           0       -0.196186    1.596132   -0.487529
     16          6           0        2.542956   -0.820328   -0.073403
     17          6           0        3.921775   -0.884745   -0.058502
     18         17           0        4.715087   -2.434325    0.106019
     19          6           0        4.694299    0.273573   -0.176812
     20          6           0        4.062458    1.497642   -0.309663
     21          1           0        1.183465    2.813793   -0.477713
     22          1           0       -1.994942   -0.405922   -1.182146
     23          1           0       -2.591675   -1.911715    0.529320
     24          1           0       -1.434455   -0.974336    2.289505
     25          1           0       -4.250110    0.666242    0.702314
     26          1           0       -4.714521   -0.864046    1.417758
     27          1           0       -6.307350   -0.672269   -1.725045
     28          1           0       -2.195973    1.906441   -0.863099
     29          1           0       -1.095347    1.669228    1.999498
     30          1           0       -1.536389    3.168101    1.142745
     31          1           0       -2.786381    2.004695    1.626054
     32          1           0        1.939939   -1.718861    0.015023
     33          1           0        5.778673    0.211997   -0.166369
     34          1           0        4.638570    2.413358   -0.403212
 ---------------------------------------------------------------------

 SCF Done:  E(RM062X) =  -1394.56960324     A.U. after    1 cycles

 The electronic state is 1-A.
 Alpha  occ. eigenvalues -- -102.68002 -19.70625 -19.70175 -19.68399 -19.65545
 Alpha  occ. eigenvalues --  -19.65308 -14.76617 -10.70589 -10.66818 -10.64321
 Alpha  occ. eigenvalues --  -10.62567 -10.62299 -10.61587 -10.59265 -10.58996
 Alpha  occ. eigenvalues --  -10.58229 -10.58207 -10.57357 -10.57025 -10.54735
 Alpha  occ. eigenvalues --   -9.82658  -7.55057  -7.54402  -7.54393  -1.24909
 Alpha  occ. eigenvalues --   -1.23989  -1.19858  -1.15763  -1.15285  -1.03504
 Alpha  occ. eigenvalues --   -1.00767  -0.95248  -0.92285  -0.89290  -0.86957
 Alpha  occ. eigenvalues --   -0.83737  -0.81363  -0.77178  -0.73498  -0.71402
 Alpha  occ. eigenvalues --   -0.70039  -0.67585  -0.66630  -0.63736  -0.61255
 Alpha  occ. eigenvalues --   -0.60262  -0.59045  -0.58849  -0.58301  -0.56592
 Alpha  occ. eigenvalues --   -0.55221  -0.54697  -0.53513  -0.53089  -0.52129
 Alpha  occ. eigenvalues --   -0.51322  -0.50252  -0.49231  -0.48073  -0.47584
 Alpha  occ. eigenvalues --   -0.46956  -0.46273  -0.45945  -0.45482  -0.45234
 Alpha  occ. eigenvalues --   -0.44021  -0.43263  -0.42271  -0.41020  -0.40682
 Alpha  occ. eigenvalues --   -0.39202  -0.38734  -0.37322  -0.37167  -0.35162
 Alpha  occ. eigenvalues --   -0.34633  -0.31446  -0.28651
 Alpha virt. eigenvalues --   -0.03041   0.00642   0.01132   0.01603   0.02019
 Alpha virt. eigenvalues --    0.02575   0.02976   0.03126   0.03610   0.04224
 Alpha virt. eigenvalues --    0.04807   0.04942   0.05270   0.05457   0.06246

 Mulliken atomic charges:
              1
     1  O   -0.565520
     2  C   -0.786224
     3  C    0.275947
     4  C    0.610632
     5  N   -0.309848
     6  C   -0.152975
     7  C   -0.144684
     8  O   -0.544133
     9  C   -0.237888
    10  C    0.472001
    11  O   -0.481531
    12  O   -0.485335
    13  C   -0.114960
    14  C   -0.298465
    15  O   -0.408604
    16  C   -0.571494
    17  C    0.235735
    18  Cl   0.207009
    19  C   -0.529458
    20  C    0.349537
    21  H    0.459153
    22  H    0.206147
    23  H    0.173007
    24  H    0.422256
    25  H    0.198035
    26  H    0.229188
    27  H    0.438111
    28  H    0.201900
    29  H    0.184796
    30  H    0.172291
    31  H    0.171478
    32  H    0.214925
    33  H    0.208592
    34  H    0.200381
 Sum of Mulliken atomic charges =   0.00000

 Dipole moment (field-independent basis, Debye):
    X=             -3.8035    Y=              3.2446    Z=             -0.2305  Tot=              5.0047
 Quadrupole moment (field-independent basis, Debye-Ang):
   XX=           -105.6239   YY=           -130.0527   ZZ=           -127.9367
   XY=              0.3450   XZ=              6.7754   YZ=             -2.8681

  Exact polarizability: 298.352  -9.074 253.862   0.351  -4.257 166.040
 Approx polarizability: 253.257  -6.586 245.222  -1.459  -4.723 163.077

                     1                      2                      3
                     A                      A                      A
 Frequencies --    19.0077                33.6956                38.4247
 Red. masses --     6.4084                 7.7788                 7.6028
 Frc consts  --     0.0014                 0.0052                 0.0066
 IR Inten    --     0.5389                 0.6719                 0.2221

                     4                      5                      6
                     A                      A                      A
 Frequencies --    48.5643                78.0505                90.8680
 Red. masses --     9.6793                 5.1293                 4.2253
 Frc consts  --     0.0135                 0.0184                 0.0206
 IR Inten    --     2.6517                 0.3251                 1.3518

                     7                      8                      9
                     A                      A                      A
 Frequencies --   121.9631               132.2023               169.4192
 Red. masses --     7.8746                 7.3990                 5.3963
 Frc consts  --     0.0690                 0.0762                 0.0913
 IR Inten    --     0.6475                 4.2492                 2.8225

                    10                     11                     12
                     A                      A                      A
 Frequencies --   179.2345               199.4086               243.4054
 Red. masses --     3.2643                 5.7442                 2.6679
 Frc consts  --     0.0618                 0.1346                 0.0931
 IR Inten    --     1.4154                10.1127                 1.0613

                    13                     14                     15
                     A                      A                      A
 Frequencies --   253.9029               277.4766               282.3898
 Red. masses --     2.6928                 4.6082                 1.7775
 Frc consts  --     0.1023                 0.2090                 0.0835
 IR Inten    --     6.2355                 8.0758                 1.6895

                    16                     17                     18
                     A                      A                      A
 Frequencies --   327.9515               340.3401               356.2110
 Red. masses --     3.4859                 5.9363                 5.9891
 Frc consts  --     0.2209                 0.4051                 0.4477
 IR Inten    --    33.7049                 2.3636                 5.8764

                    19                     20                     21
                     A                      A                      A
 Frequencies --   363.0694               383.8572               394.9232
 Red. masses --     1.3189                 9.5910                 4.3872
 Frc consts  --     0.1024                 0.8326                 0.4031
 IR Inten    --   221.6822                 2.4610                34.6791

                    22                     23                     24
                     A                      A                      A
 Frequencies --   410.5718               436.8929               478.5623
 Red. masses --     5.6235                 3.7305                 3.5314
 Frc consts  --     0.5585                 0.4195                 0.4765
 IR Inten    --    15.2305                 2.6761                 0.7683

                    25                     26                     27
                     A                      A                      A
 Frequencies --   508.7957               519.4675               527.3097
 Red. masses --     1.4604                 1.0920                 3.7269
 Frc consts  --     0.2228                 0.1736                 0.6106
 IR Inten    --    33.2770               167.6846                13.9716

                    28                     29                     30
                     A                      A                      A
 Frequencies --   549.6074               589.3557               615.6634
 Red. masses --     3.4915                 3.4688                 1.7699
 Frc consts  --     0.6214                 0.7099                 0.3953
 IR Inten    --    34.7280                41.4879               188.6837

                    31                     32                     33
                     A                      A                      A
 Frequencies --   645.2041               662.1805               683.8825
 Red. masses --     3.6537                 7.4157                 4.5735
 Frc consts  --     0.8961                 1.9158                 1.2603
 IR Inten    --    74.2517                36.3084                 8.4849

                    34                     35                     36
                     A                      A                      A
 Frequencies --   699.8380               722.3560               762.4438
 Red. masses --     5.2234                 6.5300                 5.0841
 Frc consts  --     1.5073                 2.0075                 1.7413
 IR Inten    --     5.8681                69.4981                 5.7453

                    37                     38                     39
                     A                      A                      A
 Frequencies --   775.5931               811.1806               851.2191
 Red. masses --     2.7087                 4.3207                 1.5275
 Frc consts  --     0.9600                 1.6751                 0.6521
 IR Inten    --     8.5409                17.9465                51.5476

                    40                     41                     42
                     A                      A                      A
 Frequencies --   857.5297               908.5752               924.2585
 Red. masses --     5.9626                 2.7212                 3.1398
 Frc consts  --     2.5834                 1.3235                 1.5803
 IR Inten    --     5.1127                52.9078                44.2236

                    43                     44                     45
                     A                      A                      A
 Frequencies --   926.8692               930.7512               958.2102
 Red. masses --     2.9158                 1.5627                 3.8433
 Frc consts  --     1.4759                 0.7976                 2.0791
 IR Inten    --    41.6796                14.9042                18.2509

                    46                     47                     48
                     A                      A                      A
 Frequencies --   989.6663              1012.4846              1037.1455
 Red. masses --     1.3281                 2.6176                 2.6208
 Frc consts  --     0.7664                 1.5810                 1.6610
 IR Inten    --     0.7707                54.3001                27.2132

                    49                     50                     51
                     A                      A                      A
 Frequencies --  1073.8599              1080.4016              1100.0546
 Red. masses --     2.0293                 1.9404                 2.7680
 Frc consts  --     1.3788                 1.3345                 1.9735
 IR Inten    --    49.7435                95.6911                57.3840

                    52                     53                     54
                     A                      A                      A
 Frequencies --  1115.1307              1125.3824              1149.1535
 Red. masses --     2.4112                 2.0517                 2.5506
 Frc consts  --     1.7666                 1.5310                 1.9845
 IR Inten    --    20.8613                 6.1983               271.9495

                    55                     56                     57
                     A                      A                      A
 Frequencies --  1151.2005              1168.0723              1189.7112
 Red. masses --     1.4736                 1.7223                 1.8650
 Frc consts  --     1.1506                 1.3845                 1.5553
 IR Inten    --    46.5192                34.3029               109.9706

                    58                     59                     60
                     A                      A                      A
 Frequencies --  1209.9418              1228.8460              1268.9682
 Red. masses --     1.5822                 1.5862                 1.4241
 Frc consts  --     1.3647                 1.4112                 1.3512
 IR Inten    --   208.4748                43.2478                91.7053

                    61                     62                     63
                     A                      A                      A
 Frequencies --  1273.4606              1295.3077              1301.2908
 Red. masses --     1.6866                 1.9430                 1.5313
 Frc consts  --     1.6115                 1.9207                 1.5278
 IR Inten    --    63.2760               252.1083                54.4117

                    64                     65                     66
                     A                      A                      A
 Frequencies --  1316.1670              1339.4848              1352.6851
 Red. masses --     1.3332                 1.9313                 1.8422
 Frc consts  --     1.3607                 2.0416                 1.9861
 IR Inten    --    42.4408                51.1813               183.5064

                    67                     68                     69
                     A                      A                      A
 Frequencies --  1364.9111              1378.4575              1381.3073
 Red. masses --     1.9680                 3.9569                 1.3481
 Frc consts  --     2.1602                 4.4299                 1.5154
 IR Inten    --    11.4336                31.5459                43.7746

                    70                     71                     72
                     A                      A                      A
 Frequencies --  1405.5472              1418.6086              1426.4610
 Red. masses --     1.4307                 2.0720                 1.4155
 Frc consts  --     1.6653                 2.4567                 1.6970
 IR Inten    --     5.5509               129.2347                39.2120

                    73                     74                     75
                     A                      A                      A
 Frequencies --  1453.5799              1466.1100              1481.2661
 Red. masses --     1.3491                 1.5875                 1.0759
 Frc consts  --     1.6795                 2.0105                 1.3909
 IR Inten    --    62.3876                76.0748                10.6496

                    76                     77                     78
                     A                      A                      A
 Frequencies --  1491.0843              1495.9085              1524.7825
 Red. masses --     1.4417                 2.1411                 3.2411
 Frc consts  --     1.8886                 2.8229                 4.4398
 IR Inten    --    12.6300               120.1836               374.9581

                    79                     80                     81
                     A                      A                      A
 Frequencies --  1649.7599              1694.5535              1744.8696
 Red. masses --     6.9955                 7.0554                11.2866
 Frc consts  --    11.2178                11.9367                20.2461
 IR Inten    --    36.1449                54.1602               514.4776

                    82                     83                     84
                     A                      A                      A
 Frequencies --  1829.3258              3048.9622              3055.9376
 Red. masses --    10.7660                 1.0841                 1.0854
 Frc consts  --    21.2269                 5.9376                 5.9724
 IR Inten    --   559.5557                11.5108                22.8117

                    85                     86                     87
                     A                      A                      A
 Frequencies --  3085.1634              3088.0298              3124.9734
 Red. masses --     1.0574                 1.0432                 1.0897
 Frc consts  --     5.9297                 5.8614                 6.2697
 IR Inten    --     5.8183                11.0669                 7.8284

                    88                     89                     90
                     A                      A                      A
 Frequencies --  3136.6151              3169.4756              3183.4817
 Red. masses --     1.0990                 1.1029                 1.1018
 Frc consts  --     6.3707                 6.5278                 6.5787
 IR Inten    --     4.6659                17.2391                18.4596

                    91                     92                     93
                     A                      A                      A
 Frequencies --  3210.9541              3222.4348              3226.7263
 Red. masses --     1.0904                 1.0974                 1.0934
 Frc consts  --     6.6236                 6.7140                 6.7076
 IR Inten    --     0.2969                 6.4341                11.6850

                    94                     95                     96
                     A                      A                      A
 Frequencies --  3598.3361              3708.1611              3720.8504
 Red. masses --     1.0649                 1.0661                 1.0664
 Frc consts  --     8.1236                 8.6367                 8.6985
 IR Inten    --   327.3593               596.9121               197.4228

 - Thermochemistry -
 -------------------
 Temperature   298.150 Kelvin.  Pressure   1.00000 Atm.
 Atom     1 has atomic number  8 and mass  15.99491

 Molecular mass:   299.05605 amu.
 Principal axes and moments of inertia in atomic units:
                           1         2         3
     Eigenvalues --  3013.83989********************
           X            0.99997   0.00678  -0.00352
           Y           -0.00675   0.99994   0.00899
           Z            0.00358  -0.00896   0.99995
 This molecule is an asymmetric top.
 Rotational symmetry number  1.
 Warning -- assumption of classical behavior for rotation
           may cause significant error
 Rotational temperatures (Kelvin)      0.02874     0.00662     0.00588
 Rotational constants (GHZ):           0.59882     0.13792     0.12248
 Zero-point vibrational energy     691774.9 (Joules/Mol)
                                  165.33817 (Kcal/Mol)
 Warning -- explicit consideration of  30 degrees of freedom as
           vibrations may cause significant error
 Vibrational temperatures:     27.35    48.48    55.28    69.87   112.30
          (Kelvin)            130.74   175.48   190.21   243.76   257.88
                              286.90   350.21   365.31   399.23   406.30
                              471.85   489.67   512.51   522.38   552.28
                              568.21   590.72   628.59   688.54   732.04
                              747.40   758.68   790.76   847.95   885.80
                              928.30   952.73   983.95  1006.91  1039.31
                             1096.99  1115.90  1167.11  1224.71  1233.79
                             1307.24  1329.80  1333.56  1339.14  1378.65
                             1423.91  1456.74  1492.22  1545.04  1554.46
                             1582.73  1604.42  1619.17  1653.37  1656.32
                             1680.59  1711.73  1740.83  1768.03  1825.76
                             1832.22  1863.66  1872.26  1893.67  1927.22
                             1946.21  1963.80  1983.29  1987.39  2022.27
                             2041.06  2052.36  2091.37  2109.40  2131.21
                             2145.34  2152.28  2193.82  2373.63  2438.08
                             2510.48  2631.99  4386.77  4396.81  4438.86
                             4442.98  4496.13  4512.88  4560.16  4580.31
                             4619.84  4636.36  4642.53  5177.20  5335.21
                             5353.47

 Zero-point correction=                           0.263483 (Hartree/Particle)
 Thermal correction to Energy=                    0.282094
 Thermal correction to Enthalpy=                  0.283038
 Thermal correction to Gibbs Free Energy=         0.214489
 Sum of electronic and zero-point Energies=          -1394.306120
 Sum of electronic and thermal Energies=             -1394.287509
 Sum of electronic and thermal Enthalpies=           -1394.286565
 Sum of electronic and thermal Free Energies=        -1394.355114

                     E (Thermal)             CV                S
                      KCal/Mol        Cal/Mol-Kelvin    Cal/Mol-Kelvin
 Total                  177.017             70.335            144.274
 Electronic               0.000              0.000              0.000
 Translational            0.889              2.981             42.983
 Rotational               0.889              2.981             34.718
 Vibrational            175.239             64.373             66.572
 Vibration     1          0.593              1.986              6.735
 Vibration     2          0.594              1.983              5.599
 Vibration     3          0.594              1.982              5.339
 Vibration     4          0.595              1.978              4.875
 Vibration     5          0.599              1.964              3.939
 Vibration     6          0.602              1.956              3.641
 Vibration     7          0.609              1.931              3.069
 Vibration     8          0.612              1.921              2.914
 Vibration     9          0.625              1.880              2.442
 Vibration    10          0.629              1.868              2.336
 Vibration    11          0.638              1.841              2.139
 Vibration    12          0.659              1.774              1.778
 Vibration    13          0.665              1.756              1.703
 Vibration    14          0.678              1.715              1.549
 Vibration    15          0.681              1.706              1.519
 Vibration    16          0.711              1.620              1.270
 Vibration    17          0.720              1.595              1.211
 Vibration    18          0.732              1.563              1.139
 Vibration    19          0.737              1.548              1.109
 Vibration    20          0.753              1.505              1.024
 Vibration    21          0.762              1.481              0.982
 Vibration    22          0.775              1.447              0.925
 Vibration    23          0.797              1.390              0.836
 Vibration    24          0.835              1.298              0.714
 Vibration    25          0.864              1.231              0.636
 Vibration    26          0.874              1.207              0.611
 Vibration    27          0.882              1.190              0.593
 Vibration    28          0.905              1.141              0.545
 Vibration    29          0.947              1.054              0.468
 Vibration    30          0.975              0.999              0.423

 Normal termination of Gaussian 09 at Sat Mar 23 00:21:52 2019.
