 Gaussian 09, Revision B.01,
 Gaussian 09:  EM64L-G09RevB.01 12-Aug-2010

 ----------------------------------------------------------------------
 # m062x/6-31+G(d,p) opt freq=noraman integral(ultrafinegrid) scrf=(ief
 pcm,read,solvent=methanol)
 ----------------------------------------------------------------------

 Candidate Structure: 1b, Conformer: 12 geometry optimization and frequ
 ency calculation with methanol solvation
 ----------------------------------------------------------------------
 Symbolic Z-matrix:
 Charge =  0 Multiplicity = 1

 SCF Done:  E(RM062X) =  -1394.55894725     A.U. after   16 cycles
 SCF Done:  E(RM062X) =  -1394.57407859     A.U. after   14 cycles
 SCF Done:  E(RM062X) =  -1394.57561998     A.U. after   13 cycles
 SCF Done:  E(RM062X) =  -1394.57630563     A.U. after   13 cycles
 SCF Done:  E(RM062X) =  -1394.57613721     A.U. after   14 cycles
 SCF Done:  E(RM062X) =  -1394.57663356     A.U. after   13 cycles
 SCF Done:  E(RM062X) =  -1394.57676852     A.U. after   13 cycles
 SCF Done:  E(RM062X) =  -1394.57646248     A.U. after   13 cycles
 SCF Done:  E(RM062X) =  -1394.57691440     A.U. after   12 cycles
 SCF Done:  E(RM062X) =  -1394.57696252     A.U. after   12 cycles
 SCF Done:  E(RM062X) =  -1394.57698176     A.U. after   11 cycles
 SCF Done:  E(RM062X) =  -1394.57698486     A.U. after   11 cycles
 SCF Done:  E(RM062X) =  -1394.57698562     A.U. after   10 cycles
 SCF Done:  E(RM062X) =  -1394.57698593     A.U. after    9 cycles
 SCF Done:  E(RM062X) =  -1394.57698603     A.U. after    9 cycles
 SCF Done:  E(RM062X) =  -1394.57698608     A.U. after    8 cycles
 Optimization completed.
    -- Stationary point found.
 Normal termination of Gaussian 09 at Fri Mar 22 22:57:11 2019.

 ----------------------------------------------------------------------
 #N Geom=AllCheck Guess=TCheck SCRF=Check GenChk RM062X/6-31+G(d,p) Fre
 q
 ----------------------------------------------------------------------

 ency calculation with methanol solvation
 ----------------------------------------------------------------------
 Redundant internal coordinates taken from checkpoint file:
 1b-conf-12.chk
 Charge =  0 Multiplicity = 1

                         Standard orientation:
 ---------------------------------------------------------------------
 Center     Atomic      Atomic             Coordinates (Angstroms)
 Number     Number       Type             X           Y           Z
 ---------------------------------------------------------------------
      1          8           0       -1.306426    2.634816   -0.065916
      2          6           0       -2.262638    1.693302   -0.028372
      3          6           0       -1.985319    0.318324   -0.178058
      4          6           0       -0.606230   -0.116560   -0.393423
      5          7           0        0.408952    0.667071   -0.424202
      6          6           0        1.567799   -0.167092   -0.774102
      7          6           0        2.834653    0.358336   -0.098430
      8          8           0        2.743738    0.372822    1.312831
      9          6           0        4.063468   -0.456368   -0.466800
     10          6           0        5.338139    0.238153   -0.047451
     11          8           0        6.331070   -0.630817    0.169011
     12          8           0        5.476287    1.437159    0.054323
     13          6           0        1.069426   -1.602053   -0.472311
     14          6           0        1.334496   -2.187434    0.904688
     15          8           0       -0.378325   -1.429262   -0.587685
     16          6           0       -3.024670   -0.620009   -0.124141
     17          6           0       -4.322719   -0.186869    0.074192
     18         17           0       -5.622862   -1.355016    0.142677
     19          6           0       -4.612590    1.172008    0.222014
     20          6           0       -3.587242    2.103302    0.170190
     21          1           0       -0.429325    2.195250   -0.211475
     22          1           0        1.727327   -0.068721   -1.859104
     23          1           0        2.979665    1.382203   -0.471877
     24          1           0        2.053273    1.006197    1.573248
     25          1           0        4.117257   -0.589058   -1.555155
     26          1           0        4.039179   -1.452107   -0.017099
     27          1           0        7.146081   -0.134363    0.395050
     28          1           0        1.362458   -2.299272   -1.260631
     29          1           0        0.977197   -1.515982    1.687898
     30          1           0        0.812806   -3.144551    0.983236
     31          1           0        2.400252   -2.356050    1.068410
     32          1           0       -2.800147   -1.676183   -0.238320
     33          1           0       -5.638087    1.494858    0.377399
     34          1           0       -3.792127    3.163571    0.283836
 ---------------------------------------------------------------------

 SCF Done:  E(RM062X) =  -1394.57698608     A.U. after    1 cycles

 The electronic state is 1-A.
 Alpha  occ. eigenvalues -- -102.67983 -19.70125 -19.70080 -19.67655 -19.65418
 Alpha  occ. eigenvalues --  -19.65193 -14.77521 -10.70276 -10.67242 -10.64051
 Alpha  occ. eigenvalues --  -10.62510 -10.62263 -10.61759 -10.59838 -10.58766
 Alpha  occ. eigenvalues --  -10.58409 -10.58226 -10.57343 -10.56943 -10.54614
 Alpha  occ. eigenvalues --   -9.82638  -7.55036  -7.54381  -7.54374  -1.24688
 Alpha  occ. eigenvalues --   -1.23999  -1.19555  -1.15912  -1.14959  -1.03808
 Alpha  occ. eigenvalues --   -1.00825  -0.95265  -0.92401  -0.89376  -0.86831
 Alpha  occ. eigenvalues --   -0.83649  -0.81646  -0.76870  -0.73411  -0.71554
 Alpha  occ. eigenvalues --   -0.69534  -0.68119  -0.66205  -0.63314  -0.61812
 Alpha  occ. eigenvalues --   -0.60198  -0.59519  -0.58600  -0.57869  -0.57118
 Alpha  occ. eigenvalues --   -0.55039  -0.54570  -0.53784  -0.52572  -0.51935
 Alpha  occ. eigenvalues --   -0.51198  -0.49905  -0.49123  -0.48316  -0.47067
 Alpha  occ. eigenvalues --   -0.46780  -0.46297  -0.46033  -0.45652  -0.44865
 Alpha  occ. eigenvalues --   -0.44462  -0.44115  -0.42501  -0.40971  -0.40446
 Alpha  occ. eigenvalues --   -0.38920  -0.38765  -0.37592  -0.36826  -0.35356
 Alpha  occ. eigenvalues --   -0.34591  -0.31971  -0.28493
 Alpha virt. eigenvalues --   -0.03031   0.00715   0.01127   0.01719   0.02201
 Alpha virt. eigenvalues --    0.02625   0.02828   0.03424   0.03856   0.04364
 Alpha virt. eigenvalues --    0.04790   0.05023   0.05321   0.05455   0.06253

 Mulliken atomic charges:
              1
     1  O   -0.551740
     2  C   -0.484170
     3  C    0.104291
     4  C    0.493378
     5  N   -0.417921
     6  C   -0.012542
     7  C    0.014897
     8  O   -0.567929
     9  C   -0.410482
    10  C    0.593466
    11  O   -0.497531
    12  O   -0.500644
    13  C   -0.159322
    14  C   -0.319816
    15  O   -0.333848
    16  C   -0.600873
    17  C    0.069077
    18  Cl   0.210880
    19  C   -0.510154
    20  C    0.406668
    21  H    0.458545
    22  H    0.202836
    23  H    0.176233
    24  H    0.423854
    25  H    0.224068
    26  H    0.196472
    27  H    0.441294
    28  H    0.198731
    29  H    0.184233
    30  H    0.172844
    31  H    0.168384
    32  H    0.219282
    33  H    0.207712
    34  H    0.199825
 Sum of Mulliken atomic charges =   0.00000

 Dipole moment (field-independent basis, Debye):
    X=              2.7715    Y=             -2.6528    Z=             -1.5264  Tot=              4.1290
 Quadrupole moment (field-independent basis, Debye-Ang):
   XX=           -120.3385   YY=           -129.2958   ZZ=           -123.9353
   XY=            -18.4345   XZ=             -7.2706   YZ=              2.6890

  Exact polarizability: 314.100   9.580 251.928 -12.124   4.752 157.182
 Approx polarizability: 262.521  11.678 245.277 -10.130   5.533 156.110

                     1                      2                      3
                     A                      A                      A
 Frequencies --    24.9020                32.9617                39.5681
 Red. masses --     7.7895                 9.0099                 7.4929
 Frc consts  --     0.0028                 0.0058                 0.0069
 IR Inten    --     0.0118                 2.5668                 1.1547

                     4                      5                      6
                     A                      A                      A
 Frequencies --    54.1151                70.7237               107.4529
 Red. masses --     4.9127                 4.8516                 3.6869
 Frc consts  --     0.0085                 0.0143                 0.0251
 IR Inten    --     0.7337                 0.9969                 3.4955

                     7                      8                      9
                     A                      A                      A
 Frequencies --   114.4110               129.0656               153.6973
 Red. masses --     8.4940                 6.5219                 6.5838
 Frc consts  --     0.0655                 0.0640                 0.0916
 IR Inten    --     1.3933                 2.1798                 0.2510

                    10                     11                     12
                     A                      A                      A
 Frequencies --   175.2298               198.9989               209.8389
 Red. masses --     5.8902                 5.7183                 5.4840
 Frc consts  --     0.1066                 0.1334                 0.1423
 IR Inten    --     0.6171                 3.7119                21.1985

                    13                     14                     15
                     A                      A                      A
 Frequencies --   253.8230               278.0544               280.7726
 Red. masses --     1.2195                 2.9413                 2.9395
 Frc consts  --     0.0463                 0.1340                 0.1365
 IR Inten    --    15.9891                 2.4944                39.9568

                    16                     17                     18
                     A                      A                      A
 Frequencies --   317.3335               322.7409               346.5930
 Red. masses --     4.8235                 1.5728                 5.4738
 Frc consts  --     0.2862                 0.0965                 0.3874
 IR Inten    --     6.1141               180.6275                14.4558

                    19                     20                     21
                     A                      A                      A
 Frequencies --   354.5755               378.1155               385.1349
 Red. masses --     4.4304                 2.7170                11.0956
 Frc consts  --     0.3282                 0.2289                 0.9697
 IR Inten    --    16.2053                 2.9082                 2.3410

                    22                     23                     24
                     A                      A                      A
 Frequencies --   431.6388               442.4976               473.8659
 Red. masses --     3.4895                 6.2668                 3.5867
 Frc consts  --     0.3831                 0.7230                 0.4745
 IR Inten    --     6.7317                10.2069                 0.8015

                    25                     26                     27
                     A                      A                      A
 Frequencies --   527.9513               537.6618               553.6963
 Red. masses --     1.9425                 3.0884                 3.3716
 Frc consts  --     0.3190                 0.5260                 0.6090
 IR Inten    --    18.9264                22.3798                43.2453

                    28                     29                     30
                     A                      A                      A
 Frequencies --   568.9835               615.9300               652.2267
 Red. masses --     3.1023                 3.9783                 1.8967
 Frc consts  --     0.5917                 0.8892                 0.4754
 IR Inten    --    43.1031               112.9307               156.2529

                    31                     32                     33
                     A                      A                      A
 Frequencies --   658.3490               694.4363               726.7346
 Red. masses --     7.5241                 4.6846                 4.8539
 Frc consts  --     1.9214                 1.3310                 1.5104
 IR Inten    --    36.5109                11.1474                65.6999

                    34                     35                     36
                     A                      A                      A
 Frequencies --   732.3980               742.8224               767.6390
 Red. masses --     1.1686                 5.0074                 4.2781
 Frc consts  --     0.3693                 1.6279                 1.4853
 IR Inten    --   135.3017                25.6850                21.0504

                    37                     38                     39
                     A                      A                      A
 Frequencies --   788.4196               809.6837               850.3709
 Red. masses --     2.7645                 4.1956                 1.5210
 Frc consts  --     1.0125                 1.6206                 0.6480
 IR Inten    --    36.9654                20.4082                43.7167

                    40                     41                     42
                     A                      A                      A
 Frequencies --   859.3122               909.6159               920.8176
 Red. masses --     6.0266                 2.6092                 2.1324
 Frc consts  --     2.6220                 1.2720                 1.0653
 IR Inten    --     0.5770                21.7451                30.6542

                    43                     44                     45
                     A                      A                      A
 Frequencies --   923.8453               927.7273               960.0575
 Red. masses --     2.0795                 2.9294                 5.3574
 Frc consts  --     1.0457                 1.4855                 2.9093
 IR Inten    --     4.1443                22.3857                 9.5499

                    46                     47                     48
                     A                      A                      A
 Frequencies --   987.3462              1006.9540              1037.7237
 Red. masses --     1.3283                 2.5637                 2.4897
 Frc consts  --     0.7629                 1.5316                 1.5796
 IR Inten    --     0.3664                39.3447                40.2359

                    49                     50                     51
                     A                      A                      A
 Frequencies --  1073.6808              1079.4506              1102.2772
 Red. masses --     1.9725                 1.7637                 2.4997
 Frc consts  --     1.3397                 1.2108                 1.7894
 IR Inten    --    29.3580                52.4948                93.1129

                    52                     53                     54
                     A                      A                      A
 Frequencies --  1116.5941              1127.9432              1155.2258
 Red. masses --     2.5051                 2.1132                 1.9026
 Frc consts  --     1.8402                 1.5840                 1.4960
 IR Inten    --    18.9980                95.9312               117.4872

                    55                     56                     57
                     A                      A                      A
 Frequencies --  1165.5230              1185.3406              1189.2446
 Red. masses --     1.6017                 2.4890                 1.8881
 Frc consts  --     1.2820                 2.0605                 1.5734
 IR Inten    --    65.1544               239.2396                63.1891

                    58                     59                     60
                     A                      A                      A
 Frequencies --  1222.9679              1246.2528              1272.7841
 Red. masses --     1.5390                 1.5775                 1.2309
 Frc consts  --     1.3562                 1.4436                 1.1749
 IR Inten    --   133.2418               181.1293                11.8200

                    61                     62                     63
                     A                      A                      A
 Frequencies --  1278.4805              1298.0216              1309.9764
 Red. masses --     2.2140                 1.3044                 1.7066
 Frc consts  --     2.1321                 1.2949                 1.7255
 IR Inten    --   180.0821                70.8295                17.1425

                    64                     65                     66
                     A                      A                      A
 Frequencies --  1321.9783              1341.4609              1366.5997
 Red. masses --     1.3862                 2.8226                 1.8371
 Frc consts  --     1.4273                 2.9927                 2.0215
 IR Inten    --    46.2986                81.9448                22.4968

                    67                     68                     69
                     A                      A                      A
 Frequencies --  1373.4156              1388.4288              1398.2159
 Red. masses --     1.6510                 1.7760                 2.2563
 Frc consts  --     1.8349                 2.0172                 2.5989
 IR Inten    --    58.5337                17.1325               120.6503

                    70                     71                     72
                     A                      A                      A
 Frequencies --  1423.9986              1424.9516              1448.2181
 Red. masses --     1.5519                 1.3723                 2.4487
 Frc consts  --     1.8541                 1.6417                 3.0259
 IR Inten    --    70.2687                20.3505               184.8451

                    73                     74                     75
                     A                      A                      A
 Frequencies --  1450.6832              1465.4310              1480.8612
 Red. masses --     1.2484                 1.9980                 1.1087
 Frc consts  --     1.5480                 2.5280                 1.4325
 IR Inten    --    72.2996               124.4548                16.0568

                    76                     77                     78
                     A                      A                      A
 Frequencies --  1489.2396              1491.8581              1529.8687
 Red. masses --     2.5205                 1.0778                 3.5912
 Frc consts  --     3.2936                 1.4133                 4.9522
 IR Inten    --    16.2615                25.2358               363.3870

                    79                     80                     81
                     A                      A                      A
 Frequencies --  1647.4292              1686.4612              1728.3765
 Red. masses --     5.8452                 7.0662                 9.8419
 Frc consts  --     9.3467                11.8410                17.3222
 IR Inten    --    64.2096                73.8683               571.7282

                    82                     83                     84
                     A                      A                      A
 Frequencies --  1835.2913              3027.0536              3052.5741
 Red. masses --    10.8377                 1.0847                 1.0851
 Frc consts  --    21.5078                 5.8560                 5.9576
 IR Inten    --   572.8631                14.7502                28.7622

                    85                     86                     87
                     A                      A                      A
 Frequencies --  3080.0254              3089.5440              3127.1328
 Red. masses --     1.0663                 1.0371                 1.0897
 Frc consts  --     5.9597                 5.8328                 6.2781
 IR Inten    --     1.4797                12.5283                 8.5749

                    88                     89                     90
                     A                      A                      A
 Frequencies --  3153.1597              3172.2402              3185.4762
 Red. masses --     1.0970                 1.1027                 1.1015
 Frc consts  --     6.4261                 6.5380                 6.5855
 IR Inten    --     6.8585                16.4451                20.0209

                    91                     92                     93
                     A                      A                      A
 Frequencies --  3211.1522              3223.1057              3225.2708
 Red. masses --     1.0907                 1.0967                 1.0940
 Frc consts  --     6.6261                 6.7128                 6.7050
 IR Inten    --     0.1015                 9.2712                 8.1289

                    94                     95                     96
                     A                      A                      A
 Frequencies --  3267.7155              3597.5179              3723.5904
 Red. masses --     1.0716                 1.0647                 1.0665
 Frc consts  --     6.7420                 8.1190                 8.7125
 IR Inten    --  1095.3845               321.8379               178.8952

 - Thermochemistry -
 -------------------
 Temperature   298.150 Kelvin.  Pressure   1.00000 Atm.
 Atom     1 has atomic number  8 and mass  15.99491

 Molecular mass:   299.05605 amu.
 Principal axes and moments of inertia in atomic units:
                           1         2         3
     Eigenvalues --  2093.15592********************
           X            0.99994  -0.01113  -0.00078
           Y            0.01113   0.99993  -0.00394
           Z            0.00083   0.00393   0.99999
 This molecule is an asymmetric top.
 Rotational symmetry number  1.
 Warning -- assumption of classical behavior for rotation
           may cause significant error
 Rotational temperatures (Kelvin)      0.04138     0.00580     0.00526
 Rotational constants (GHZ):           0.86221     0.12092     0.10966
 Zero-point vibrational energy     691375.2 (Joules/Mol)
                                  165.24263 (Kcal/Mol)
 Warning -- explicit consideration of  29 degrees of freedom as
           vibrations may cause significant error
 Vibrational temperatures:     35.83    47.42    56.93    77.86   101.76
          (Kelvin)            154.60   164.61   185.70   221.14   252.12
                              286.31   301.91   365.19   400.06   403.97
                              456.57   464.35   498.67   510.15   544.02
                              554.12   621.03   636.65   681.79   759.60
                              773.57   796.64   818.64   886.18   938.41
                              947.22   999.14  1045.61  1053.76  1068.75
                             1104.46  1134.36  1164.95  1223.49  1236.36
                             1308.73  1324.85  1329.21  1334.79  1381.31
                             1420.57  1448.78  1493.05  1544.79  1553.09
                             1585.93  1606.53  1622.86  1662.11  1676.93
                             1705.44  1711.06  1759.58  1793.08  1831.25
                             1839.45  1867.56  1884.76  1902.03  1930.06
                             1966.23  1976.04  1997.64  2011.72  2048.81
                             2050.18  2083.66  2087.21  2108.43  2130.63
                             2142.68  2146.45  2201.14  2370.28  2426.44
                             2486.75  2640.57  4355.25  4391.97  4431.46
                             4445.16  4499.24  4536.69  4564.14  4583.18
                             4620.13  4637.32  4640.44  4701.51  5176.02
                             5357.41

 Zero-point correction=                           0.263331 (Hartree/Particle)
 Thermal correction to Energy=                    0.281895
 Thermal correction to Enthalpy=                  0.282839
 Thermal correction to Gibbs Free Energy=         0.214586
 Sum of electronic and zero-point Energies=          -1394.313655
 Sum of electronic and thermal Energies=             -1394.295091
 Sum of electronic and thermal Enthalpies=           -1394.294147
 Sum of electronic and thermal Free Energies=        -1394.362400

                     E (Thermal)             CV                S
                      KCal/Mol        Cal/Mol-Kelvin    Cal/Mol-Kelvin
 Total                  176.892             69.799            143.650
 Electronic               0.000              0.000              0.000
 Translational            0.889              2.981             42.983
 Rotational               0.889              2.981             34.596
 Vibrational            175.114             63.837             66.070
 Vibration     1          0.593              1.985              6.199
 Vibration     2          0.594              1.983              5.643
 Vibration     3          0.594              1.981              5.281
 Vibration     4          0.596              1.976              4.661
 Vibration     5          0.598              1.968              4.133
 Vibration     6          0.606              1.943              3.314
 Vibration     7          0.607              1.937              3.193
 Vibration     8          0.612              1.924              2.960
 Vibration     9          0.619              1.899              2.626
 Vibration    10          0.627              1.873              2.379
 Vibration    11          0.637              1.841              2.142
 Vibration    12          0.642              1.826              2.045
 Vibration    13          0.665              1.756              1.704
 Vibration    14          0.679              1.714              1.546
 Vibration    15          0.680              1.709              1.529
 Vibration    16          0.704              1.640              1.324
 Vibration    17          0.708              1.630              1.296
 Vibration    18          0.725              1.582              1.182
 Vibration    19          0.730              1.566              1.146
 Vibration    20          0.748              1.517              1.047
 Vibration    21          0.754              1.502              1.019
 Vibration    22          0.793              1.401              0.853
 Vibration    23          0.802              1.377              0.819
 Vibration    24          0.831              1.308              0.727
 Vibration    25          0.883              1.188              0.592
 Vibration    26          0.893              1.167              0.570
 Vibration    27          0.909              1.132              0.537
 Vibration    28          0.925              1.098              0.506
 Vibration    29          0.976              0.998              0.423

 Optimization completed.
    -- Stationary point found.
 Normal termination of Gaussian 09 at Fri Mar 22 23:20:59 2019.
