 Gaussian 09, Revision B.01,
 Gaussian 09:  EM64L-G09RevB.01 12-Aug-2010

 ----------------------------------------------------------------------
 # m062x/6-31+G(d,p) opt freq=noraman integral(ultrafinegrid) scrf=(ief
 pcm,read,solvent=methanol)
 ----------------------------------------------------------------------

 Candidate Structure: 1b, Conformer: 3 geometry optimization and freque
 ncy calculation with methanol solvation
 ----------------------------------------------------------------------
 Symbolic Z-matrix:
 Charge =  0 Multiplicity = 1

 SCF Done:  E(RM062X) =  -1394.55264847     A.U. after   16 cycles
 SCF Done:  E(RM062X) =  -1394.56657876     A.U. after   14 cycles
 SCF Done:  E(RM062X) =  -1394.56726173     A.U. after   14 cycles
 SCF Done:  E(RM062X) =  -1394.56783823     A.U. after   14 cycles
 SCF Done:  E(RM062X) =  -1394.56854625     A.U. after   14 cycles
 SCF Done:  E(RM062X) =  -1394.56859246     A.U. after   13 cycles
 SCF Done:  E(RM062X) =  -1394.56857258     A.U. after   13 cycles
 SCF Done:  E(RM062X) =  -1394.56877328     A.U. after   13 cycles
 SCF Done:  E(RM062X) =  -1394.56878458     A.U. after   12 cycles
 SCF Done:  E(RM062X) =  -1394.56879320     A.U. after   11 cycles
 SCF Done:  E(RM062X) =  -1394.56879349     A.U. after   11 cycles
 SCF Done:  E(RM062X) =  -1394.56879406     A.U. after    9 cycles
 Optimization completed.
    -- Stationary point found.
 Normal termination of Gaussian 09 at Fri Mar 22 23:53:24 2019.

 ----------------------------------------------------------------------
 #N Geom=AllCheck Guess=TCheck SCRF=Check GenChk RM062X/6-31+G(d,p) Fre
 q
 ----------------------------------------------------------------------

 ncy calculation with methanol solvation
 ----------------------------------------------------------------------
 Redundant internal coordinates taken from checkpoint file:
 1b-conf-3.chk
 Charge =  0 Multiplicity = 1

                         Standard orientation:
 ---------------------------------------------------------------------
 Center     Atomic      Atomic             Coordinates (Angstroms)
 Number     Number       Type             X           Y           Z
 ---------------------------------------------------------------------
      1          8           0        2.020309    2.861567   -0.283722
      2          6           0        2.563333    1.626550   -0.232341
      3          6           0        1.829980    0.426795   -0.163504
      4          6           0        0.359521    0.378704   -0.132013
      5          7           0       -0.358015   -0.656555    0.057852
      6          6           0       -1.752049   -0.219231   -0.115836
      7          6           0       -2.682989   -1.043123    0.774913
      8          8           0       -2.353984   -0.949728    2.144052
      9          6           0       -4.156087   -0.638003    0.647460
     10          6           0       -4.608791   -0.734206   -0.787636
     11          8           0       -4.664512    0.460751   -1.388077
     12          8           0       -4.858913   -1.773515   -1.358740
     13          6           0       -1.684756    1.314477    0.056609
     14          6           0       -1.857291    1.894535    1.450344
     15          8           0       -0.297388    1.556605   -0.340327
     16          6           0        2.515264   -0.797742   -0.110603
     17          6           0        3.895314   -0.823187   -0.122330
     18         17           0        4.733586   -2.356214   -0.053196
     19          6           0        4.632789    0.361744   -0.190869
     20          6           0        3.964648    1.572429   -0.245665
     21          1           0        1.048394    2.814118   -0.287536
     22          1           0       -2.030190   -0.438535   -1.159712
     23          1           0       -2.584996   -2.084777    0.434015
     24          1           0       -1.443065   -1.271827    2.260880
     25          1           0       -4.309336    0.375682    1.022235
     26          1           0       -4.752228   -1.332657    1.243805
     27          1           0       -4.930792    0.338334   -2.324747
     28          1           0       -2.313949    1.828962   -0.672332
     29          1           0       -1.176178    1.416361    2.157565
     30          1           0       -1.645875    2.966397    1.414246
     31          1           0       -2.875042    1.753176    1.817578
     32          1           0        1.939281   -1.716776   -0.061514
     33          1           0        5.718468    0.331132   -0.202504
     34          1           0        4.513234    2.508030   -0.299285
 ---------------------------------------------------------------------

 SCF Done:  E(RM062X) =  -1394.56879406     A.U. after    1 cycles

 The electronic state is 1-A.
 Alpha  occ. eigenvalues -- -102.68023 -19.70709 -19.70477 -19.68444 -19.65578
 Alpha  occ. eigenvalues --  -19.65528 -14.76733 -10.70562 -10.66953 -10.64371
 Alpha  occ. eigenvalues --  -10.62592 -10.62328 -10.62207 -10.59661 -10.59042
 Alpha  occ. eigenvalues --  -10.58265 -10.58243 -10.57179 -10.57053 -10.54774
 Alpha  occ. eigenvalues --   -9.82679  -7.55077  -7.54422  -7.54414  -1.24990
 Alpha  occ. eigenvalues --   -1.24107  -1.19902  -1.16061  -1.15366  -1.03643
 Alpha  occ. eigenvalues --   -1.00806  -0.95311  -0.92477  -0.89370  -0.86986
 Alpha  occ. eigenvalues --   -0.83773  -0.81280  -0.77035  -0.73659  -0.71563
 Alpha  occ. eigenvalues --   -0.70298  -0.67659  -0.67094  -0.63900  -0.61393
 Alpha  occ. eigenvalues --   -0.60363  -0.59268  -0.59001  -0.57732  -0.56469
 Alpha  occ. eigenvalues --   -0.55491  -0.55146  -0.53437  -0.52767  -0.52208
 Alpha  occ. eigenvalues --   -0.51433  -0.49943  -0.49582  -0.48205  -0.47866
 Alpha  occ. eigenvalues --   -0.47184  -0.46304  -0.45981  -0.45739  -0.45266
 Alpha  occ. eigenvalues --   -0.44116  -0.43487  -0.42318  -0.41091  -0.40595
 Alpha  occ. eigenvalues --   -0.39230  -0.38754  -0.37474  -0.37015  -0.35281
 Alpha  occ. eigenvalues --   -0.34867  -0.31562  -0.28700
 Alpha virt. eigenvalues --   -0.03121   0.00648   0.01095   0.01699   0.02155
 Alpha virt. eigenvalues --    0.02238   0.02844   0.03205   0.03557   0.04413
 Alpha virt. eigenvalues --    0.04668   0.04905   0.05072   0.05470   0.06230

 Mulliken atomic charges:
              1
     1  O   -0.565094
     2  C   -0.774341
     3  C    0.242378
     4  C    0.714831
     5  N   -0.287198
     6  C   -0.325392
     7  C   -0.137090
     8  O   -0.522801
     9  C   -0.064334
    10  C    0.242680
    11  O   -0.453283
    12  O   -0.464980
    13  C   -0.107042
    14  C   -0.279983
    15  O   -0.401286
    16  C   -0.557147
    17  C    0.230993
    18  Cl   0.208242
    19  C   -0.531074
    20  C    0.360659
    21  H    0.458940
    22  H    0.199598
    23  H    0.183052
    24  H    0.422939
    25  H    0.188474
    26  H    0.212535
    27  H    0.439950
    28  H    0.207005
    29  H    0.187248
    30  H    0.173562
    31  H    0.173775
    32  H    0.214713
    33  H    0.208899
    34  H    0.200567
 Sum of Mulliken atomic charges =   0.00000

 Dipole moment (field-independent basis, Debye):
    X=             -1.9584    Y=              4.0767    Z=             -0.5550  Tot=              4.5566
 Quadrupole moment (field-independent basis, Debye-Ang):
   XX=           -122.4890   YY=           -133.2213   ZZ=           -124.1839
   XY=             -8.6165   XZ=              4.4515   YZ=             -4.4027

  Exact polarizability: 291.306  -1.017 262.832   2.375  -3.443 166.618
 Approx polarizability: 247.053   0.666 254.254   1.601  -3.615 161.838

                     1                      2                      3
                     A                      A                      A
 Frequencies --    21.9659                37.5747                45.9048
 Red. masses --     6.9198                 8.4948                 7.3064
 Frc consts  --     0.0020                 0.0071                 0.0091
 IR Inten    --     0.5125                 1.5866                 1.8235

                     4                      5                      6
                     A                      A                      A
 Frequencies --    51.2338                70.1764                90.6943
 Red. masses --     7.5704                 4.9571                 5.0359
 Frc consts  --     0.0117                 0.0144                 0.0244
 IR Inten    --     1.4286                 0.1242                 0.8680

                     7                      8                      9
                     A                      A                      A
 Frequencies --   122.5119               134.7989               148.7876
 Red. masses --     8.1640                 7.2506                 4.8422
 Frc consts  --     0.0722                 0.0776                 0.0632
 IR Inten    --     0.5591                 4.3146                 4.0593

                    10                     11                     12
                     A                      A                      A
 Frequencies --   177.5159               197.7461               240.2039
 Red. masses --     4.6479                 5.7001                 1.6133
 Frc consts  --     0.0863                 0.1313                 0.0548
 IR Inten    --     0.2841                 8.5204                 1.1031

                    13                     14                     15
                     A                      A                      A
 Frequencies --   248.9105               271.8664               290.9019
 Red. masses --     3.1297                 2.6699                 4.7266
 Frc consts  --     0.1142                 0.1163                 0.2357
 IR Inten    --     7.4866                 1.8993                10.0025

                    16                     17                     18
                     A                      A                      A
 Frequencies --   328.8979               339.7634               355.0139
 Red. masses --     2.6949                 3.7026                 3.4235
 Frc consts  --     0.1718                 0.2518                 0.2542
 IR Inten    --    91.1985                32.2174                69.4270

                    19                     20                     21
                     A                      A                      A
 Frequencies --   356.9989               382.0994               393.5839
 Red. masses --     2.1751                 6.1676                 6.5853
 Frc consts  --     0.1633                 0.5305                 0.6010
 IR Inten    --    80.9807                 7.9377                13.6463

                    22                     23                     24
                     A                      A                      A
 Frequencies --   434.6187               441.8604               464.6679
 Red. masses --     3.4924                 2.6963                 3.9692
 Frc consts  --     0.3887                 0.3102                 0.5049
 IR Inten    --     1.2332                 6.9034                10.0354

                    25                     26                     27
                     A                      A                      A
 Frequencies --   483.2196               524.6027               547.8310
 Red. masses --     3.6579                 1.0845                 3.4822
 Frc consts  --     0.5032                 0.1759                 0.6157
 IR Inten    --     2.1778               167.4158                27.5632

                    28                     29                     30
                     A                      A                      A
 Frequencies --   563.9009               597.2139               626.7705
 Red. masses --     3.0092                 1.7498                 2.2919
 Frc consts  --     0.5638                 0.3677                 0.5305
 IR Inten    --    21.6705               154.1475               124.0692

                    31                     32                     33
                     A                      A                      A
 Frequencies --   645.6083               663.2776               699.4878
 Red. masses --     3.6213                 7.4122                 5.3723
 Frc consts  --     0.8893                 1.9213                 1.5487
 IR Inten    --    26.9319                40.7972                 4.2203

                    34                     35                     36
                     A                      A                      A
 Frequencies --   721.7079               752.3414               763.7147
 Red. masses --     6.7480                 4.1394                 4.7907
 Frc consts  --     2.0708                 1.3804                 1.6463
 IR Inten    --    75.4370                39.0482                 9.6181

                    37                     38                     39
                     A                      A                      A
 Frequencies --   780.1031               812.5495               850.6930
 Red. masses --     3.0678                 4.2331                 1.5313
 Frc consts  --     1.1000                 1.6467                 0.6529
 IR Inten    --     3.2223                19.0602                51.5231

                    40                     41                     42
                     A                      A                      A
 Frequencies --   857.7032               911.8756               926.1635
 Red. masses --     5.9666                 2.6220                 3.0631
 Frc consts  --     2.5861                 1.2845                 1.5480
 IR Inten    --     2.8148                32.7347                65.7535

                    43                     44                     45
                     A                      A                      A
 Frequencies --   930.8271               937.6182               959.8878
 Red. masses --     1.5644                 3.8408                 3.4636
 Frc consts  --     0.7986                 1.9894                 1.8802
 IR Inten    --    14.6900                 9.8231                39.9722

                    46                     47                     48
                     A                      A                      A
 Frequencies --   989.4110              1009.8034              1031.9359
 Red. masses --     1.3291                 2.2077                 2.8658
 Frc consts  --     0.7666                 1.3264                 1.7981
 IR Inten    --     0.7266                26.2232                83.8733

                    49                     50                     51
                     A                      A                      A
 Frequencies --  1064.7476              1074.3975              1100.9450
 Red. masses --     1.8258                 2.1196                 2.7482
 Frc consts  --     1.2195                 1.4416                 1.9626
 IR Inten    --    49.5448               106.5262                51.1478

                    52                     53                     54
                     A                      A                      A
 Frequencies --  1117.9524              1125.1340              1135.2801
 Red. masses --     2.4534                 2.0744                 1.4853
 Frc consts  --     1.8066                 1.5472                 1.1279
 IR Inten    --    36.9086                 7.5792               151.7524

                    55                     56                     57
                     A                      A                      A
 Frequencies --  1152.7901              1175.6284              1195.5337
 Red. masses --     1.4308                 2.6598                 2.1305
 Frc consts  --     1.1203                 2.1659                 1.7941
 IR Inten    --    36.8111                35.5344                50.3712

                    58                     59                     60
                     A                      A                      A
 Frequencies --  1212.5706              1227.9286              1264.4305
 Red. masses --     1.6151                 1.4802                 1.2859
 Frc consts  --     1.3991                 1.3150                 1.2113
 IR Inten    --   316.1603                43.4968                71.1916

                    61                     62                     63
                     A                      A                      A
 Frequencies --  1271.8153              1294.1965              1303.0513
 Red. masses --     1.9522                 1.8644                 1.4845
 Frc consts  --     1.8605                 1.8399                 1.4851
 IR Inten    --    91.2269               263.8658                23.4852

                    64                     65                     66
                     A                      A                      A
 Frequencies --  1319.1242              1339.2534              1353.0177
 Red. masses --     1.3915                 1.9830                 1.8665
 Frc consts  --     1.4266                 2.0955                 2.0132
 IR Inten    --    41.4539                57.6282               208.1298

                    67                     68                     69
                     A                      A                      A
 Frequencies --  1370.2644              1380.4810              1381.9086
 Red. masses --     2.0227                 2.8408                 1.4627
 Frc consts  --     2.2377                 3.1897                 1.6458
 IR Inten    --    23.2740                 1.8403                33.0527

                    70                     71                     72
                     A                      A                      A
 Frequencies --  1401.6558              1410.1204              1425.1828
 Red. masses --     1.8594                 1.9423                 1.3828
 Frc consts  --     2.1524                 2.2756                 1.6548
 IR Inten    --    94.8256               114.6084                21.0158

                    73                     74                     75
                     A                      A                      A
 Frequencies --  1443.2964              1480.0060              1484.7058
 Red. masses --     1.5218                 1.0915                 1.1420
 Frc consts  --     1.8677                 1.4087                 1.4832
 IR Inten    --    22.4140                 4.1498                26.5775

                    76                     77                     78
                     A                      A                      A
 Frequencies --  1492.4779              1496.0404              1524.8337
 Red. masses --     1.4064                 2.2332                 3.2413
 Frc consts  --     1.8457                 2.9448                 4.4403
 IR Inten    --    25.0489               115.6549               375.6074

                    79                     80                     81
                     A                      A                      A
 Frequencies --  1649.3613              1694.6917              1740.8864
 Red. masses --     6.9545                 7.0644                11.2293
 Frc consts  --    11.1467                11.9538                20.0514
 IR Inten    --    35.5660                55.7636               560.8013

                    82                     83                     84
                     A                      A                      A
 Frequencies --  1832.6212              3015.7937              3038.0393
 Red. masses --    10.6190                 1.0841                 1.0855
 Frc consts  --    21.0126                 5.8091                 5.9030
 IR Inten    --   620.5950                15.5010                39.5249

                    85                     86                     87
                     A                      A                      A
 Frequencies --  3087.3321              3116.6652              3138.2315
 Red. masses --     1.0370                 1.0603                 1.0902
 Frc consts  --     5.8235                 6.0684                 6.3258
 IR Inten    --    11.7568                 3.2072                 3.7564

                    88                     89                     90
                     A                      A                      A
 Frequencies --  3169.0942              3177.8050              3188.1704
 Red. masses --     1.1029                 1.1058                 1.1012
 Frc consts  --     6.5262                 6.5794                 6.5950
 IR Inten    --    18.6918                 9.2369                12.5026

                    91                     92                     93
                     A                      A                      A
 Frequencies --  3211.0233              3222.3640              3225.5233
 Red. masses --     1.0903                 1.0974                 1.0936
 Frc consts  --     6.6237                 6.7138                 6.7034
 IR Inten    --     0.2310                 7.2716                11.2235

                    94                     95                     96
                     A                      A                      A
 Frequencies --  3587.2227              3708.0616              3713.5506
 Red. masses --     1.0648                 1.0661                 1.0662
 Frc consts  --     8.0729                 8.6364                 8.6633
 IR Inten    --   327.4765               554.8171               247.7739

 - Thermochemistry -
 -------------------
 Temperature   298.150 Kelvin.  Pressure   1.00000 Atm.
 Atom     1 has atomic number  8 and mass  15.99491

 Molecular mass:   299.05605 amu.
 Principal axes and moments of inertia in atomic units:
                           1         2         3
     Eigenvalues --  3079.45586********************
           X            0.99997   0.00694  -0.00395
           Y           -0.00692   0.99996   0.00522
           Z            0.00398  -0.00520   0.99998
 This molecule is an asymmetric top.
 Rotational symmetry number  1.
 Warning -- assumption of classical behavior for rotation
           may cause significant error
 Rotational temperatures (Kelvin)      0.02813     0.00690     0.00613
 Rotational constants (GHZ):           0.58606     0.14373     0.12768
 Zero-point vibrational energy     692468.8 (Joules/Mol)
                                  165.50403 (Kcal/Mol)
 Warning -- explicit consideration of  29 degrees of freedom as
           vibrations may cause significant error
 Vibrational temperatures:     31.60    54.06    66.05    73.71   100.97
          (Kelvin)            130.49   176.27   193.95   214.07   255.41
                              284.51   345.60   358.13   391.15   418.54
                              473.21   488.84   510.79   513.64   549.76
                              566.28   625.32   635.74   668.55   695.24
                              754.79   788.21   811.33   859.26   901.78
                              928.89   954.31  1006.41  1038.38  1082.45
                             1098.81  1122.39  1169.08  1223.96  1234.04
                             1311.98  1332.54  1339.25  1349.02  1381.06
                             1423.54  1452.88  1484.72  1531.93  1545.82
                             1584.01  1608.48  1618.81  1633.41  1658.61
                             1691.46  1720.10  1744.62  1766.71  1819.23
                             1829.86  1862.06  1874.80  1897.92  1926.88
                             1946.69  1971.50  1986.20  1988.26  2016.67
                             2028.85  2050.52  2076.58  2129.40  2136.16
                             2147.34  2152.47  2193.89  2373.06  2438.28
                             2504.74  2636.73  4339.05  4371.06  4441.98
                             4484.18  4515.21  4559.61  4572.15  4587.06
                             4619.94  4636.26  4640.80  5161.21  5335.07
                             5342.96

 Zero-point correction=                           0.263747 (Hartree/Particle)
 Thermal correction to Energy=                    0.282330
 Thermal correction to Enthalpy=                  0.283274
 Thermal correction to Gibbs Free Energy=         0.215051
 Sum of electronic and zero-point Energies=          -1394.305047
 Sum of electronic and thermal Energies=             -1394.286464
 Sum of electronic and thermal Enthalpies=           -1394.285520
 Sum of electronic and thermal Free Energies=        -1394.353743

                     E (Thermal)             CV                S
                      KCal/Mol        Cal/Mol-Kelvin    Cal/Mol-Kelvin
 Total                  177.165             70.141            143.587
 Electronic               0.000              0.000              0.000
 Translational            0.889              2.981             42.983
 Rotational               0.889              2.981             34.657
 Vibrational            175.387             64.180             65.947
 Vibration     1          0.593              1.985              6.448
 Vibration     2          0.594              1.982              5.383
 Vibration     3          0.595              1.979              4.986
 Vibration     4          0.596              1.977              4.769
 Vibration     5          0.598              1.968              4.148
 Vibration     6          0.602              1.956              3.645
 Vibration     7          0.610              1.930              3.060
 Vibration     8          0.613              1.919              2.876
 Vibration     9          0.618              1.904              2.688
 Vibration    10          0.628              1.870              2.354
 Vibration    11          0.637              1.843              2.154
 Vibration    12          0.657              1.779              1.801
 Vibration    13          0.662              1.765              1.738
 Vibration    14          0.675              1.725              1.584
 Vibration    15          0.687              1.691              1.469
 Vibration    16          0.712              1.618              1.265
 Vibration    17          0.720              1.596              1.213
 Vibration    18          0.731              1.565              1.144
 Vibration    19          0.732              1.561              1.135
 Vibration    20          0.752              1.508              1.031
 Vibration    21          0.761              1.484              0.987
 Vibration    22          0.795              1.395              0.844
 Vibration    23          0.802              1.379              0.821
 Vibration    24          0.822              1.328              0.753
 Vibration    25          0.839              1.287              0.701
 Vibration    26          0.880              1.196              0.599
 Vibration    27          0.903              1.144              0.549
 Vibration    28          0.920              1.109              0.516
 Vibration    29          0.955              1.038              0.454

 Normal termination of Gaussian 09 at Sat Mar 23 00:17:17 2019.
