 Gaussian 09, Revision B.01,
 Gaussian 09:  EM64L-G09RevB.01 12-Aug-2010

 ----------------------------------------------------------------------
 # m062x/6-31+G(d,p) opt freq=noraman integral(ultrafinegrid) scrf=(ief
 pcm,read,solvent=methanol)
 ----------------------------------------------------------------------

 Candidate Structure: 1b, Conformer: 9 geometry optimization and freque
 ncy calculation with methanol solvation
 ----------------------------------------------------------------------
 Symbolic Z-matrix:
 Charge =  0 Multiplicity = 1

 SCF Done:  E(RM062X) =  -1394.55771277     A.U. after   16 cycles
 SCF Done:  E(RM062X) =  -1394.56955739     A.U. after   15 cycles
 SCF Done:  E(RM062X) =  -1394.56570699     A.U. after   15 cycles
 SCF Done:  E(RM062X) =  -1394.57186800     A.U. after   14 cycles
 SCF Done:  E(RM062X) =  -1394.57327945     A.U. after   14 cycles
 SCF Done:  E(RM062X) =  -1394.57243420     A.U. after   15 cycles
 SCF Done:  E(RM062X) =  -1394.57474532     A.U. after   14 cycles
 SCF Done:  E(RM062X) =  -1394.57575381     A.U. after   14 cycles
 SCF Done:  E(RM062X) =  -1394.57520716     A.U. after   14 cycles
 SCF Done:  E(RM062X) =  -1394.57632326     A.U. after   13 cycles
 SCF Done:  E(RM062X) =  -1394.57688564     A.U. after   12 cycles
 SCF Done:  E(RM062X) =  -1394.57689954     A.U. after   11 cycles
 SCF Done:  E(RM062X) =  -1394.57690587     A.U. after   11 cycles
 SCF Done:  E(RM062X) =  -1394.57690792     A.U. after   11 cycles
 SCF Done:  E(RM062X) =  -1394.57690988     A.U. after   10 cycles
 SCF Done:  E(RM062X) =  -1394.57691019     A.U. after    9 cycles
 SCF Done:  E(RM062X) =  -1394.57691026     A.U. after    9 cycles
 SCF Done:  E(RM062X) =  -1394.57691021     A.U. after    9 cycles
 SCF Done:  E(RM062X) =  -1394.57691020     A.U. after    8 cycles
 Optimization completed.
    -- Stationary point found.
 Normal termination of Gaussian 09 at Sat Mar 23 00:42:52 2019.

 ----------------------------------------------------------------------
 #N Geom=AllCheck Guess=TCheck SCRF=Check GenChk RM062X/6-31+G(d,p) Fre
 q
 ----------------------------------------------------------------------

 ncy calculation with methanol solvation
 ----------------------------------------------------------------------
 Redundant internal coordinates taken from checkpoint file:
 1b-conf-9.chk
 Charge =  0 Multiplicity = 1

                         Standard orientation:
 ---------------------------------------------------------------------
 Center     Atomic      Atomic             Coordinates (Angstroms)
 Number     Number       Type             X           Y           Z
 ---------------------------------------------------------------------
      1          8           0        0.273666   -2.192232   -0.750941
      2          6           0        1.359962   -1.443495   -0.498175
      3          6           0        1.311841   -0.038235   -0.379361
      4          6           0        0.031722    0.650218   -0.534150
      5          7           0       -1.075745    0.062763   -0.799138
      6          6           0       -2.104938    1.101836   -0.897980
      7          6           0       -3.446029    0.651741   -0.291549
      8          8           0       -4.159852   -0.126692   -1.233753
      9          6           0       -3.332920   -0.091579    1.051716
     10          6           0       -2.600830   -1.407321    0.944164
     11          8           0       -1.659982   -1.564879    1.874413
     12          8           0       -2.856347   -2.262985    0.116422
     13          6           0       -1.403669    2.364363   -0.322185
     14          6           0       -1.702889    2.775573    1.108947
     15          8           0        0.004208    1.987403   -0.382450
     16          6           0        2.479175    0.686323   -0.104598
     17          6           0        3.678217    0.013974    0.045058
     18         17           0        5.137368    0.915815    0.386895
     19          6           0        3.741507   -1.376985   -0.070225
     20          6           0        2.588420   -2.097583   -0.339770
     21          1           0       -0.509369   -1.595302   -0.870667
     22          1           0       -2.316601    1.270385   -1.961729
     23          1           0       -4.058980    1.545541   -0.126597
     24          1           0       -3.776554   -1.020360   -1.250247
     25          1           0       -4.351822   -0.325864    1.380364
     26          1           0       -2.867993    0.524938    1.819427
     27          1           0       -1.236038   -2.442000    1.753587
     28          1           0       -1.529839    3.212804   -0.998052
     29          1           0       -1.391859    1.997871    1.811587
     30          1           0       -1.147463    3.685714    1.346181
     31          1           0       -2.768617    2.981685    1.245018
     32          1           0        2.430538    1.767105   -0.011751
     33          1           0        4.691575   -1.889515    0.051299
     34          1           0        2.617017   -3.179100   -0.432546
 ---------------------------------------------------------------------

 SCF Done:  E(RM062X) =  -1394.57691020     A.U. after    1 cycles

 The electronic state is 1-A.
 Alpha  occ. eigenvalues -- -102.68005 -19.70427 -19.70335 -19.67692 -19.65447
 Alpha  occ. eigenvalues --  -19.65140 -14.77542 -10.70781 -10.67399 -10.64099
 Alpha  occ. eigenvalues --  -10.62829 -10.62395 -10.62303 -10.59842 -10.58842
 Alpha  occ. eigenvalues --  -10.58453 -10.58256 -10.57330 -10.56977 -10.55546
 Alpha  occ. eigenvalues --   -9.82660  -7.55058  -7.54403  -7.54395  -1.25097
 Alpha  occ. eigenvalues --   -1.24186  -1.19555  -1.16184  -1.14859  -1.04107
 Alpha  occ. eigenvalues --   -1.00865  -0.95347  -0.92523  -0.88885  -0.87107
 Alpha  occ. eigenvalues --   -0.83738  -0.81814  -0.77456  -0.73631  -0.72133
 Alpha  occ. eigenvalues --   -0.69689  -0.68398  -0.67534  -0.63155  -0.61197
 Alpha  occ. eigenvalues --   -0.60842  -0.59969  -0.58198  -0.57939  -0.56587
 Alpha  occ. eigenvalues --   -0.54795  -0.53972  -0.53839  -0.53379  -0.51749
 Alpha  occ. eigenvalues --   -0.51534  -0.50731  -0.49765  -0.48986  -0.48226
 Alpha  occ. eigenvalues --   -0.47389  -0.46517  -0.46102  -0.45807  -0.45227
 Alpha  occ. eigenvalues --   -0.44475  -0.44134  -0.42553  -0.41014  -0.40684
 Alpha  occ. eigenvalues --   -0.38967  -0.38781  -0.37380  -0.36640  -0.35947
 Alpha  occ. eigenvalues --   -0.34634  -0.31956  -0.28517
 Alpha virt. eigenvalues --   -0.03176   0.00884   0.00988   0.01666   0.02083
 Alpha virt. eigenvalues --    0.02387   0.03011   0.03389   0.03819   0.04505
 Alpha virt. eigenvalues --    0.04644   0.04921   0.05266   0.05613   0.06607

 Mulliken atomic charges:
              1
     1  O   -0.563081
     2  C   -0.390561
     3  C    0.065335
     4  C    0.364170
     5  N   -0.455044
     6  C    0.261738
     7  C   -0.140804
     8  O   -0.532501
     9  C   -0.164304
    10  C    0.235739
    11  O   -0.409930
    12  O   -0.458424
    13  C   -0.087973
    14  C   -0.466654
    15  O   -0.300715
    16  C   -0.603730
    17  C    0.051042
    18  Cl   0.212940
    19  C   -0.497796
    20  C    0.398788
    21  H    0.450665
    22  H    0.203279
    23  H    0.183619
    24  H    0.412955
    25  H    0.226424
    26  H    0.186759
    27  H    0.444674
    28  H    0.200020
    29  H    0.178275
    30  H    0.187819
    31  H    0.179975
    32  H    0.219325
    33  H    0.207798
    34  H    0.200177
 Sum of Mulliken atomic charges =   0.00000

 Dipole moment (field-independent basis, Debye):
    X=             -0.9296    Y=              3.0576    Z=              2.8115  Tot=              4.2565
 Quadrupole moment (field-independent basis, Debye-Ang):
   XX=           -136.6236   YY=           -115.7561   ZZ=           -125.7696
   XY=            -19.3447   XZ=            -10.0460   YZ=             -4.9004

  Exact polarizability: 303.155  -1.964 249.671  26.000  11.448 167.680
 Approx polarizability: 263.631   5.806 237.245  24.737  13.424 166.088

                     1                      2                      3
                     A                      A                      A
 Frequencies --    19.7576                37.4871                56.0296
 Red. masses --     7.8860                 4.7640                 7.0745
 Frc consts  --     0.0018                 0.0039                 0.0131
 IR Inten    --     0.9450                 1.5675                 0.1904

                     4                      5                      6
                     A                      A                      A
 Frequencies --    61.2764                90.7768               111.2010
 Red. masses --     4.3651                 9.3521                10.8208
 Frc consts  --     0.0097                 0.0454                 0.0788
 IR Inten    --     0.9335                 5.5896                 1.5870

                     7                      8                      9
                     A                      A                      A
 Frequencies --   129.9365               143.3402               156.6466
 Red. masses --     6.4285                 8.4930                 6.4258
 Frc consts  --     0.0639                 0.1028                 0.0929
 IR Inten    --     3.2038                 1.1848                 0.7665

                    10                     11                     12
                     A                      A                      A
 Frequencies --   193.9575               206.5971               249.7694
 Red. masses --     3.5154                 6.0324                 3.9060
 Frc consts  --     0.0779                 0.1517                 0.1436
 IR Inten    --     2.2481                10.1341                 1.1912

                    13                     14                     15
                     A                      A                      A
 Frequencies --   268.5217               294.0738               313.7562
 Red. masses --     3.0655                 3.4545                 3.1928
 Frc consts  --     0.1302                 0.1760                 0.1852
 IR Inten    --     2.4028                 6.5790                 1.2700

                    16                     17                     18
                     A                      A                      A
 Frequencies --   329.9925               344.2779               362.4721
 Red. masses --     2.0639                 4.6790                 5.7018
 Frc consts  --     0.1324                 0.3268                 0.4414
 IR Inten    --     2.2445                 1.1395                 4.5027

                    19                     20                     21
                     A                      A                      A
 Frequencies --   378.3150               406.9104               414.6567
 Red. masses --    10.9045                 1.6860                 3.4784
 Frc consts  --     0.9195                 0.1645                 0.3524
 IR Inten    --     1.8035                99.7640                32.6762

                    22                     23                     24
                     A                      A                      A
 Frequencies --   426.1485               452.9847               473.5338
 Red. masses --     2.4540                 3.9081                 3.4659
 Frc consts  --     0.2626                 0.4725                 0.4579
 IR Inten    --    93.2273                 9.3640                 5.5063

                    25                     26                     27
                     A                      A                      A
 Frequencies --   505.8634               542.7009               554.6223
 Red. masses --     2.2251                 3.8217                 3.2427
 Frc consts  --     0.3355                 0.6632                 0.5877
 IR Inten    --     7.9283                 6.5369                 3.7870

                    28                     29                     30
                     A                      A                      A
 Frequencies --   563.6564               609.6929               658.0729
 Red. masses --     2.5167                 2.1880                 7.6978
 Frc consts  --     0.4711                 0.4792                 1.9641
 IR Inten    --    91.3119               155.1663                32.0641

                    31                     32                     33
                     A                      A                      A
 Frequencies --   669.7615               702.5040               727.9994
 Red. masses --     2.2171                 5.1278                 6.0214
 Frc consts  --     0.5860                 1.4910                 1.8802
 IR Inten    --   227.7401                 3.7499                83.3813

                    34                     35                     36
                     A                      A                      A
 Frequencies --   751.4508               763.4103               785.3182
 Red. masses --     2.5580                 2.4714                 1.6336
 Frc consts  --     0.8510                 0.8486                 0.5936
 IR Inten    --    41.7754                10.8662                81.3865

                    37                     38                     39
                     A                      A                      A
 Frequencies --   802.1113               825.4770               851.7864
 Red. masses --     3.6263                 3.9557                 1.5179
 Frc consts  --     1.3746                 1.5881                 0.6489
 IR Inten    --    19.1898                 7.5944                36.7550

                    40                     41                     42
                     A                      A                      A
 Frequencies --   859.7544               884.5904               922.1312
 Red. masses --     5.6745                 3.4626                 1.4639
 Frc consts  --     2.4713                 1.5964                 0.7334
 IR Inten    --     0.9963                42.1536                23.6158

                    43                     44                     45
                     A                      A                      A
 Frequencies --   927.6464               940.6813               945.8784
 Red. masses --     2.8394                 3.9306                 2.9276
 Frc consts  --     1.4396                 2.0492                 1.5432
 IR Inten    --     4.2879                24.1325                36.2351

                    46                     47                     48
                     A                      A                      A
 Frequencies --   985.4836               987.9299              1031.5184
 Red. masses --     2.9066                 1.3298                 2.3506
 Frc consts  --     1.6631                 0.7647                 1.4736
 IR Inten    --     3.3426                 0.3348                46.8885

                    49                     50                     51
                     A                      A                      A
 Frequencies --  1065.0067              1089.7192              1105.9231
 Red. masses --     2.2617                 1.9275                 2.5018
 Frc consts  --     1.5114                 1.3486                 1.8028
 IR Inten    --   104.8403                14.7374               112.8938

                    52                     53                     54
                     A                      A                      A
 Frequencies --  1114.8562              1127.2047              1150.2710
 Red. masses --     2.3973                 2.2201                 1.8318
 Frc consts  --     1.7556                 1.6620                 1.4280
 IR Inten    --    18.2733               115.7622               127.5446

                    55                     56                     57
                     A                      A                      A
 Frequencies --  1165.6970              1174.0194              1186.5676
 Red. masses --     1.6246                 1.9505                 2.0022
 Frc consts  --     1.3007                 1.5839                 1.6609
 IR Inten    --    45.4342               249.7099               178.1195

                    58                     59                     60
                     A                      A                      A
 Frequencies --  1230.5735              1241.9084              1260.2499
 Red. masses --     1.3723                 1.5770                 1.4741
 Frc consts  --     1.2244                 1.4330                 1.3794
 IR Inten    --    26.2881               238.2388                16.7789

                    61                     62                     63
                     A                      A                      A
 Frequencies --  1280.4290              1308.1685              1321.4821
 Red. masses --     2.3426                 1.5647                 1.6144
 Frc consts  --     2.2629                 1.5776                 1.6610
 IR Inten    --   146.1011                 5.0636                36.0268

                    64                     65                     66
                     A                      A                      A
 Frequencies --  1331.6276              1340.2151              1361.5787
 Red. masses --     1.5197                 2.4876                 1.7540
 Frc consts  --     1.5878                 2.6325                 1.9159
 IR Inten    --    15.0292                73.7609                 5.5304

                    67                     68                     69
                     A                      A                      A
 Frequencies --  1371.3851              1386.3697              1393.5817
 Red. masses --     1.5974                 1.3896                 2.2950
 Frc consts  --     1.7701                 1.5736                 2.6260
 IR Inten    --    57.6034                11.2960                71.0299

                    70                     71                     72
                     A                      A                      A
 Frequencies --  1421.0776              1425.9884              1439.4218
 Red. masses --     1.4504                 1.7593                 1.2693
 Frc consts  --     1.7257                 2.1078                 1.5495
 IR Inten    --    36.8569               194.1538                15.0720

                    73                     74                     75
                     A                      A                      A
 Frequencies --  1449.7450              1471.5903              1484.4997
 Red. masses --     2.4887                 1.4058                 3.1875
 Frc consts  --     3.0819                 1.7937                 4.1387
 IR Inten    --   304.0721                46.0476                 0.2791

                    76                     77                     78
                     A                      A                      A
 Frequencies --  1492.1852              1510.3557              1530.3951
 Red. masses --     1.0619                 1.0566                 3.5443
 Frc consts  --     1.3931                 1.4202                 4.8910
 IR Inten    --    10.7562                19.2143               343.2663

                    79                     80                     81
                     A                      A                      A
 Frequencies --  1646.9403              1686.8650              1735.5024
 Red. masses --     5.9382                 7.1151                10.1028
 Frc consts  --     9.4899                11.9287                17.9285
 IR Inten    --    55.2615                50.9342               584.5210

                    82                     83                     84
                     A                      A                      A
 Frequencies --  1807.0444              3061.1219              3076.8228
 Red. masses --     9.9131                 1.0856                 1.0377
 Frc consts  --    19.0721                 5.9937                 5.7878
 IR Inten    --   537.2599                12.9191                 5.7164

                    85                     86                     87
                     A                      A                      A
 Frequencies --  3085.1959              3096.3406              3126.1006
 Red. masses --     1.0833                 1.0720                 1.0898
 Frc consts  --     6.0750                 6.0553                 6.2746
 IR Inten    --    21.2285                 2.3222                 6.4809

                    88                     89                     90
                     A                      A                      A
 Frequencies --  3162.7514              3165.1178              3199.7187
 Red. masses --     1.1031                 1.1031                 1.0936
 Frc consts  --     6.5014                 6.5109                 6.5967
 IR Inten    --    12.8985                23.3021                 2.4400

                    91                     92                     93
                     A                      A                      A
 Frequencies --  3210.2515              3221.9771              3223.5741
 Red. masses --     1.0906                 1.0965                 1.0943
 Frc consts  --     6.6222                 6.7067                 6.6998
 IR Inten    --     0.0533                10.4041                 6.2592

                    94                     95                     96
                     A                      A                      A
 Frequencies --  3276.1524              3585.1237              3735.8725
 Red. masses --     1.0713                 1.0646                 1.0663
 Frc consts  --     6.7748                 8.0619                 8.7682
 IR Inten    --  1024.2375               316.2707               212.6887

 - Thermochemistry -
 -------------------
 Temperature   298.150 Kelvin.  Pressure   1.00000 Atm.
 Atom     1 has atomic number  8 and mass  15.99491

 Molecular mass:   299.05605 amu.
 Principal axes and moments of inertia in atomic units:
                           1         2         3
     Eigenvalues --  3075.782469606.10793**********
           X            0.99976  -0.02142  -0.00548
           Y            0.02149   0.99968   0.01325
           Z            0.00520  -0.01337   0.99990
 This molecule is an asymmetric top.
 Rotational symmetry number  1.
 Warning -- assumption of classical behavior for rotation
           may cause significant error
 Rotational temperatures (Kelvin)      0.02816     0.00902     0.00764
 Rotational constants (GHZ):           0.58676     0.18787     0.15926
 Zero-point vibrational energy     694175.2 (Joules/Mol)
                                  165.91185 (Kcal/Mol)
 Warning -- explicit consideration of  29 degrees of freedom as
           vibrations may cause significant error
 Vibrational temperatures:     28.43    53.94    80.61    88.16   130.61
          (Kelvin)            159.99   186.95   206.23   225.38   279.06
                              297.25   359.36   386.34   423.11   451.42
                              474.79   495.34   521.52   544.31   585.45
                              596.60   613.13   651.74   681.31   727.82
                              780.82   797.98   810.97   877.21   946.82
                              963.64  1010.75  1047.43  1081.17  1098.38
                             1129.90  1154.06  1187.68  1225.53  1236.99
                             1272.73  1326.74  1334.67  1353.43  1360.91
                             1417.89  1421.41  1484.12  1532.31  1567.86
                             1591.17  1604.03  1621.79  1654.98  1677.18
                             1689.15  1707.20  1770.52  1786.83  1813.22
                             1842.25  1882.16  1901.32  1915.91  1928.27
                             1959.01  1973.11  1994.67  2005.05  2044.61
                             2051.68  2071.00  2085.86  2117.29  2135.86
                             2146.92  2173.06  2201.89  2369.58  2427.02
                             2497.00  2599.93  4404.27  4426.86  4438.90
                             4454.94  4497.76  4550.49  4553.89  4603.68
                             4618.83  4635.70  4638.00  4713.65  5158.19
                             5375.08

 Zero-point correction=                           0.264397 (Hartree/Particle)
 Thermal correction to Energy=                    0.282468
 Thermal correction to Enthalpy=                  0.283412
 Thermal correction to Gibbs Free Energy=         0.216939
 Sum of electronic and zero-point Energies=          -1394.312513
 Sum of electronic and thermal Energies=             -1394.294442
 Sum of electronic and thermal Enthalpies=           -1394.293498
 Sum of electronic and thermal Free Energies=        -1394.359971

                     E (Thermal)             CV                S
                      KCal/Mol        Cal/Mol-Kelvin    Cal/Mol-Kelvin
 Total                  177.251             69.158            139.904
 Electronic               0.000              0.000              0.000
 Translational            0.889              2.981             42.983
 Rotational               0.889              2.981             34.170
 Vibrational            175.474             63.197             62.751
 Vibration     1          0.593              1.986              6.658
 Vibration     2          0.594              1.982              5.388
 Vibration     3          0.596              1.975              4.592
 Vibration     4          0.597              1.973              4.416
 Vibration     5          0.602              1.956              3.643
 Vibration     6          0.607              1.940              3.248
 Vibration     7          0.612              1.923              2.947
 Vibration     8          0.616              1.910              2.759
 Vibration     9          0.620              1.895              2.590
 Vibration    10          0.635              1.848              2.190
 Vibration    11          0.641              1.830              2.074
 Vibration    12          0.663              1.763              1.732
 Vibration    13          0.673              1.731              1.606
 Vibration    14          0.689              1.685              1.450
 Vibration    15          0.702              1.647              1.342
 Vibration    16          0.713              1.616              1.260
 Vibration    17          0.723              1.587              1.192
 Vibration    18          0.736              1.550              1.111
 Vibration    19          0.749              1.516              1.046
 Vibration    20          0.772              1.455              0.938
 Vibration    21          0.778              1.438              0.910
 Vibration    22          0.788              1.413              0.871
 Vibration    23          0.812              1.354              0.787
 Vibration    24          0.830              1.309              0.728
 Vibration    25          0.861              1.237              0.644
 Vibration    26          0.898              1.156              0.560
 Vibration    27          0.910              1.130              0.535
 Vibration    28          0.919              1.110              0.517
 Vibration    29          0.969              1.011              0.433

 Optimization completed.
    -- Stationary point found.
 Normal termination of Gaussian 09 at Sat Mar 23 01:08:40 2019.
